ITEM: TIMESTEP
0
ITEM: NUMBER OF ATOMS
1290
ITEM: BOX BOUNDS pp pp pp
-1.6448100000000000e+01 1.6448100000000000e+01
-1.6448100000000000e+01 1.6448100000000000e+01
-1.0000000000000001e-01 1.0000000000000001e-01
ITEM: ATOMS type xu yu 
1 -7.12552 -5.06545 
3 -11.6863 -0.998116 
2 7.62446 13.204 
1 -4.94541 -12.9591 
1 16.7602 -13.4052 
1 0.915477 -15.0206 
1 -18.6074 -6.7324 
2 3.80862 -15.3673 
1 15.5741 10.2977 
3 4.81631 -12.8528 
1 5.90353 5.41576 
2 0.285847 11.5824 
3 -3.39257 -3.25422 
3 -20.1952 14.1722 
1 -0.658352 6.34179 
3 4.43298 -13.7852 
3 -16.317 12.5132 
2 -15.5073 7.13434 
1 1.63846 -15.9022 
1 8.71112 -8.93306 
1 9.02605 7.88554 
2 16.4713 4.69345 
3 -2.6866 -16.7454 
1 -2.91211 -9.62757 
1 9.46127 -7.1255 
1 -7.81143 -8.9817 
2 -14.6606 0.683368 
1 15.1967 -5.25747 
2 -14.3602 8.50215 
3 -20.2556 13.1859 
3 -21.532 0.783664 
1 20.8166 13.1508 
2 2.53097 -16.1423 
1 -4.61448 16.8393 
2 -6.46722 -1.81644 
1 -0.728705 -1.7522 
1 -3.07668 5.39413 
1 -1.95469 13.1256 
1 0.751022 13.6786 
2 9.58906 -2.42967 
2 12.3762 19.6937 
2 -10.1376 0.0880644 
3 12.1905 3.33553 
1 -7.29786 -1.51384 
1 0.125366 9.30229 
1 -18.1447 1.09217 
1 -9.77355 -5.87027 
3 2.98793 -5.74403 
2 -11.7385 9.8636 
1 5.90955 -3.53261 
3 18.2347 4.17908 
3 0.0624239 -4.05289 
1 10.5894 -15.1006 
1 15.8212 14.5064 
2 11.3391 -2.17247 
1 -3.42678 14.5694 
1 -8.87502 17.6261 
2 -9.99734 -14.164 
1 7.22585 -9.85468 
1 -13.6888 6.6299 
1 -1.5797 -3.22493 
1 3.56956 -2.91154 
3 9.12907 -8.00064 
1 -17.4976 -7.09262 
2 15.7678 12.8636 
1 -18.7926 7.14592 
1 -6.02687 -9.95902 
3 -8.50936 -7.40732 
2 6.13899 3.77516 
2 15.033 -9.84878 
2 13.5242 -0.386933 
3 -3.28508 6.3459 
1 4.43016 -1.39899 
1 -21.0273 -5.54073 
2 13.7734 -2.02808 
2 8.47549 5.38191 
1 -2.29353 2.54342 
1 21.5583 9.09361 
3 11.5538 15.3239 
1 16.4711 -10.9206 
3 -5.97318 2.0185 
3 9.10192 -13.5254 
1 -8.26544 -2.74581 
3 2.15781 3.85563 
1 9.01626 -1.77759 
1 -12.1689 -9.48288 
1 8.95995 -11.8449 
1 9.64615 8.78467 
2 13.6093 -8.62227 
2 14.9557 4.81444 
2 -7.34346 -11.098 
3 2.68206 10.9024 
1 9.90721 4.43448 
1 -16.3368 -9.43713 
3 -4.80681 3.21023 
3 17.8256 -18.0046 
1 6.01099 -1.8722 
3 -4.90535 11.2698 
2 2.22701 -8.85135 
1 -2.4434 -0.78765 
2 14.3436 13.4753 
1 -13.3772 -10.8181 
3 -2.58045 15.0416 
1 5.00071 14.3317 
1 -1.8552 -16.2554 
1 13.3271 -5.93871 
1 -8.14831 4.1322 
1 -16.9958 15.5961 
3 6.97692 7.48612 
1 5.52533 -13.4943 
1 -5.89673 -2.59127 
3 -12.5349 -1.56462 
1 -6.53407 0.021079 
3 -15.6531 -15.087 
2 -7.34547 -0.523992 
1 -12.0064 0.971737 
1 3.9255 15.8965 
3 -7.18443 13.5932 
1 -23.9324 -14.4936 
1 -9.42167 12.4131 
3 5.11613 -11.6957 
2 -13.9018 -10.1233 
1 -5.7811 2.9141 
1 3.29947 -10.285 
2 11.4169 8.48293 
1 14.5824 -1.8365 
1 -4.44507 -3.54848 
1 12.0754 10.3309 
2 18.5219 -3.78162 
3 13.9382 19.4145 
1 10.4706 -2.35242 
2 -0.950984 7.17221 
1 4.41317 9.03537 
1 -13.0619 -2.36803 
3 17.1929 -10.3465 
1 -14.5667 5.24773 
1 -4.91539 -9.82645 
1 -0.773746 1.3159 
3 -12.6311 -4.44469 
2 4.09957 14.37 
1 -8.0674 13.3974 
3 -4.54436 13.0865 
3 -10.9853 -18.3503 
2 2.2804 -6.30422 
1 4.47338 -9.22131 
1 -0.621136 -10.9332 
3 15.3431 -8.15282 
3 -0.146974 -15.6922 
1 -3.96354 -9.31743 
3 13.5475 4.04687 
2 -2.05214 -9.74419 
3 -15.4689 1.06524 
1 16.5763 8.75513 
1 19.3153 13.87 
2 5.11214 -9.83918 
1 -5.71974 -13.6771 
2 -7.57095 -3.28414 
2 3.63297 1.56525 
3 -4.84209 18.9426 
3 10.9356 -14.0289 
1 6.20712 8.06207 
1 15.6224 4.29106 
1 -16.8617 -2.75938 
1 7.31669 -11.2427 
1 -4.73739 17.9899 
2 -16.2628 14.2661 
2 -16.9357 -3.62526 
3 -12.57 10.2644 
1 12.2252 5.18048 
1 -14.6963 -2.94 
2 -7.28484 -13.964 
1 -9.26233 6.14578 
1 12.3361 6.26822 
2 2.6174 12.4499 
3 -13.0141 -9.90448 
3 1.9823 -15.0055 
1 4.83411 -2.9643 
1 -6.39704 -20.7037 
1 4.16514 7.70397 
1 -12.0427 -14.7094 
1 -15.4922 4.62073 
2 -14.0184 11.4235 
3 -5.65383 0.360359 
1 13.4085 -1.26768 
1 11.9472 0.00856675 
1 -1.44319 5.45755 
2 -1.82631 3.48097 
1 -9.19255 3.52555 
3 -5.5294 -9.04913 
2 -5.46381 -4.6493 
2 -12.9254 -9.00447 
2 -2.85382 -19.8708 
3 -4.18895 -12.3658 
2 13.0411 12.3479 
2 -9.53519 8.79412 
1 -13.4879 5.49438 
2 7.6167 -4.2483 
1 16.5788 5.55514 
1 13.2321 -9.4937 
1 -7.18991 18.0553 
1 6.88735 -4.82271 
3 10.5853 19.8886 
2 9.78573 -10.4131 
1 8.53381 -4.63434 
2 10.7968 4.21598 
3 -11.911 0.0107918 
1 -12.6176 6.25542 
3 -9.17618 -14.2211 
2 6.06235 -0.221802 
1 -5.58466 -3.68738 
2 5.4915 -7.32268 
1 -12.8877 -11.9419 
1 -9.88146 10.4956 
1 10.0898 -4.27114 
1 3.78623 -6.21134 
1 18.729 19.2306 
2 -15.2181 -4.92485 
2 11.6953 -0.784312 
3 -4.93586 5.0988 
3 15.5878 8.70432 
2 -1.03091 12.7869 
2 0.110861 -13.2763 
2 -5.31371 15.4009 
1 2.83393 -0.181494 
1 -9.85403 -2.75757 
2 9.78705 -14.7657 
2 12.9896 -12.0183 
2 -6.46711 13.0346 
1 7.99286 -17.8465 
2 9.5472 2.74065 
2 0.254605 10.1865 
3 4.23456 -20.6754 
1 4.74343 4.99583 
2 -19.4047 16.6367 
1 -4.81448 4.17537 
2 -7.23771 -12.5067 
3 -14.0577 14.7638 
1 3.27454 6.30733 
1 6.78288 6.55278 
1 -6.76443 -11.7815 
3 1.65689 -18.495 
2 0.930409 7.84303 
1 -8.87834 -1.55339 
1 6.96078 -0.129991 
3 -11.496 -10.1336 
2 -6.94218 15.3852 
3 -6.53604 -0.902404 
3 21.4735 -13.0571 
1 -15.099 -5.82109 
1 7.85572 6.04458 
1 0.547417 -12.4894 
1 4.13564 -11.1392 
3 -13.2582 -13.3281 
2 -8.61376 14.9318 
2 15.8211 6.15191 
1 3.28943 11.7426 
2 -10.3629 -19.98 
1 2.34428 -17.7563 
1 8.49677 13.2099 
3 2.93778 -17.0375 
1 -16.5788 -12.482 
3 -4.53032 -10.7312 
1 15.0941 0.0790724 
3 -10.6997 11.085 
1 15.7188 11.9879 
1 -3.50834 27.9714 
3 3.56098 8.50093 
2 -2.32173 0.117511 
2 15.9645 7.92533 
3 11.6565 4.36814 
2 -12.4731 20.1063 
2 1.73085 -3.45783 
3 9.44458 13.0703 
2 3.61929 -22.0545 
3 -11.8211 -3.86552 
1 -13.5383 -4.1017 
1 -8.80383 15.7775 
3 -7.64186 5.02438 
2 -18.2127 -4.49734 
1 -9.94578 -3.8465 
2 15.2197 9.45225 
3 -12.8947 -7.13369 
3 -17.2635 -15.2618 
3 11.4207 6.68995 
2 10.3145 -5.07155 
1 14.1905 -10.2998 
2 -3.72939 -4.09223 
1 14.5226 3.99007 
1 0.284671 -6.03812 
1 -6.15105 15.7809 
2 1.68946 10.9683 
3 -6.45178 18.6744 
1 8.01489 1.92702 
3 -12.9476 4.64994 
1 3.43736 -7.67439 
2 16.8625 -11.7878 
1 -15.0387 7.87394 
1 -11.4851 11.6743 
1 2.11329 -7.16101 
3 -7.24168 12.5652 
1 8.48347 6.9967 
2 16.1178 -7.72894 
2 18.4695 3.31313 
3 1.97044 -16.79 
3 17.7935 -13.5091 
1 7.98069 -6.05082 
1 -10.3811 -7.69698 
3 -12.4083 12.1567 
1 -11.9381 4.43123 
2 15.494 1.5546 
1 -3.92465 -11.4576 
1 -0.461653 12.0948 
1 3.67698 -5.03688 
3 -2.85276 -6.96007 
1 -19.5502 21.7247 
2 -11.422 -13.9749 
3 14.2609 -14.4253 
2 -14.4992 14.0283 
1 2.77223 9.12206 
2 1.6346 6.64417 
2 8.19972 24.7237 
3 10.6959 6.03672 
3 -6.92242 -8.17276 
3 -14.0522 -2.19187 
1 11.3178 7.63695 
3 12.627 -0.622722 
3 -20.0566 -5.13738 
2 -15.4482 -9.5004 
3 3.40947 -12.1458 
1 -18.9606 17.3997 
3 -3.59944 12.4682 
3 -11.163 2.99515 
1 10.233 -16.0549 
1 -1.80881 -7.99073 
2 -9.8454 -9.25065 
1 9.52184 10.4094 
1 -5.02423 6.06748 
1 8.69469 4.52509 
1 8.36656 0.938565 
1 1.71531 -20.2995 
3 5.23522 2.41761 
1 9.35673 -0.590416 
3 3.72534 -0.79298 
1 -7.18714 22.7278 
1 18.0287 -7.79727 
3 5.82472 6.43081 
2 -0.00917528 18.0987 
1 0.829965 10.8334 
3 -10.6193 -9.74307 
3 -11.1899 5.02514 
3 -9.10307 -3.33837 
1 2.48323 13.3538 
2 18.3902 -12.8054 
1 -10.228 -11.4227 
3 -3.84036 -15.3495 
3 2.66436 -9.60907 
3 6.38134 -7.36488 
2 3.61913 9.41055 
3 15.7052 5.23838 
1 13.0566 7.53971 
3 -1.4322 18.6133 
2 9.89696 7.74443 
3 21.5857 -15.4441 
1 -11.6239 -5.94016 
3 -4.54835 -4.52868 
1 -10.6979 -1.35701 
1 -15.3499 0.166437 
2 1.61922 13.4951 
2 0.275585 -3.18751 
1 -8.62538 5.27979 
3 18.2098 16.6765 
1 -11.9524 14.752 
2 -1.01403 11.4049 
3 -0.869508 -16.7417 
2 -8.37753 6.33038 
1 0.272594 -2.21572 
1 2.17948 11.6667 
1 -7.81923 -15.7533 
1 9.04989 2.00406 
2 9.74016 12.2712 
3 15.764 0.719535 
1 14.3414 -0.697712 
2 13.7323 8.99987 
1 8.46863 8.90273 
2 -10.7288 -6.17297 
3 -6.50637 -3.37699 
1 -10.9543 -4.12486 
3 7.49798 -16.2495 
2 1.09088 -5.50043 
1 -0.0929323 -8.7864 
3 -9.49592 -17.7323 
2 3.76497 0.148861 
3 -7.91581 7.07165 
3 -16.0199 -3.4884 
1 1.54334 0.20033 
2 -16.4594 -1.93746 
2 1.20817 -7.33666 
1 -5.61307 7.63989 
1 -11.7595 -4.86139 
2 5.17265 17.3438 
1 -10.6808 -5.20554 
2 9.93347 9.58475 
2 11.881 14.5389 
3 3.21027 -4.11711 
2 3.99791 -7.05956 
3 6.9275 5.60464 
3 8.84815 -6.40932 
3 0.782906 2.64983 
1 14.8725 5.68146 
1 -3.30317 7.41069 
1 17.9981 11.3472 
1 -11.157 -6.97 
1 -6.24793 17.7134 
1 -7.35281 10.6338 
2 -14.6947 17.5616 
1 -13.6115 9.93079 
3 -8.1358 -22.7466 
1 6.0597 -19.834 
1 5.37381 -5.04862 
2 12.0485 -4.64662 
1 17.1615 -1.32392 
1 -8.55649 20.3033 
3 -0.121143 7.2148 
1 -14.4003 15.6909 
1 -0.276367 10.9235 
3 -10.0741 -6.8046 
1 -11.532 1.98666 
1 -7.08074 16.293 
3 -6.28694 -4.42289 
1 -10.8967 13.5639 
2 7.38706 4.15675 
3 -7.95702 -5.53104 
3 6.68765 10.7398 
3 2.4775 -8.00338 
1 9.68885 23.3502 
1 7.58292 -3.32687 
3 14.0059 12.2905 
2 14.241 -11.1998 
1 9.62977 -12.6651 
1 -3.82727 3.43538 
3 5.09904 -2.10068 
2 8.50068 11.5256 
3 -2.58478 8.06348 
1 15.0295 7.75417 
1 -7.19822 -4.02551 
1 12.4193 -10.3895 
1 -9.0933 -6.70939 
1 -0.711394 -4.68788 
3 -20.3326 2.33546 
2 -10.6567 6.38071 
2 2.37191 0.575838 
3 -4.0771 2.43298 
1 10.7085 -5.82872 
1 6.80645 11.7547 
1 16.051 -5.98662 
2 23.3954 17.0989 
1 -4.12749 5.60093 
3 -0.908351 8.02396 
3 -16.6236 -1.12083 
2 12.2552 0.856445 
3 9.42848 6.98503 
2 17.0144 9.52305 
1 10.877 -6.96891 
1 -10.381 8.58175 
2 10.1894 5.30044 
2 -7.92016 -4.64807 
2 17.2917 13.1271 
2 7.64346 -6.89541 
3 11.3398 12.6771 
1 19.5952 -5.18648 
1 16.6521 10.3415 
3 6.92647 12.6889 
1 10.4783 2.62953 
1 -4.53376 12.1643 
3 -1.25018 -6.36714 
2 11.5802 -10.7246 
2 2.90254 -1.07039 
3 1.06544 9.80273 
1 -5.832 11.2796 
2 7.62221 6.89463 
2 6.64843 -8.17117 
1 8.40933 -7.28769 
2 -14.3216 6.08562 
1 -15.3337 3.48745 
2 5.70915 -2.66913 
2 4.22436 -2.26012 
3 8.38554 -2.71426 
1 -9.82065 -0.704675 
3 5.88661 12.1147 
3 5.94883 14.0629 
1 -10.3417 5.46773 
3 -3.26998 -1.26821 
3 9.03022 9.6164 
3 -11.8845 -8.51766 
2 -9.11677 -2.41705 
1 7.0833 -1.66978 
1 12.6048 4.11765 
3 8.06135 -18.8456 
3 -7.78866 -13.2106 
1 1.24173 -1.7251 
3 0.415839 -14.0746 
1 17.7038 10.0736 
1 2.2069 -10.4525 
2 8.22988 -11.3918 
2 5.01089 9.7001 
3 13.7511 -7.73611 
1 1.35936 -6.37417 
1 2.45848 4.82979 
3 15.2218 11.1501 
2 9.06577 0.214953 
1 -14.01 2.5035 
2 0.132046 -10.4392 
1 13.0262 0.308735 
1 7.51364 10.3578 
2 -8.00267 -16.6487 
2 16.0299 -5.0597 
3 -14.5195 -6.63311 
1 0.513672 -9.6382 
1 0.604516 12.4525 
2 3.38327 7.19701 
1 11.3379 -15.8881 
1 -9.25013 0.229388 
2 17.3045 1.89149 
3 11.1454 -3.04979 
1 -1.56317 -5.36666 
2 -2.87432 11.4352 
1 13.1216 9.74159 
2 -8.50861 7.76506 
1 5.05395 -16.9718 
1 -13.0661 14.8247 
3 -18.0465 16.9452 
3 8.4135 29.181 
1 4.56592 -0.276937 
1 -2.38036 -10.599 
1 -20.1484 -7.53725 
3 -2.70274 -19.0016 
3 19.5005 15.7033 
1 -2.78112 -15.6033 
2 -0.99961 17.0101 
2 -12.0181 8.49396 
2 -8.15157 10.989 
1 18.1094 -10.0653 
3 7.5619 -0.847971 
1 -14.2906 -0.135066 
3 7.97087 -14.3214 
2 -6.65754 6.07408 
3 -2.33833 5.94112 
1 4.89889 -6.63376 
3 -13.371 10.8219 
2 7.70053 2.84355 
1 3.69603 3.55103 
2 14.7705 -15.0785 
2 6.09104 -4.48757 
1 8.24658 -0.156429 
2 8.51693 -15.2656 
1 -1.53598 12.0667 
2 5.1042 11.7273 
2 -12.5248 -0.662697 
1 13.1246 3.15812 
1 1.95173 10.1657 
1 -3.25559 8.86254 
1 5.47054 8.94439 
1 -7.54184 1.45541 
3 -3.16365 10.5241 
1 5.84549 -21.7133 
1 12.5331 -17.6167 
3 -11.062 4.02164 
2 -8.72948 -11.7202 
2 -6.22252 9.41977 
1 19.9496 -16.2444 
1 -10.342 -12.4987 
1 10.4738 1.0331 
1 -6.96915 6.95506 
3 -17.3657 -4.39367 
3 -19.8512 -15.5074 
3 -1.58667 6.49878 
1 10.9669 -1.32017 
3 2.28758 -1.72775 
1 -6.86045 -6.29384 
2 1.94741 -13.4746 
3 2.48141 6.95602 
1 2.93599 -11.2951 
3 4.24788 6.72971 
1 -7.53929 6.02555 
1 8.14378 -13.3419 
2 17.2594 10.9183 
1 19.0779 7.69723 
3 -9.47602 -12.1292 
2 11.373 9.84772 
2 -13.8447 4.72034 
2 8.04042 15.8971 
3 4.4431 3.00028 
1 11.4371 -11.5503 
1 -13.0235 -8.12452 
3 -8.11838 -9.97558 
1 -15.2981 -4.07045 
3 8.8305 12.3041 
3 6.45335 -0.967423 
1 12.9961 8.61593 
1 4.17019 10.0956 
2 -8.07637 -14.9233 
2 -3.18661 -14.7529 
1 -8.6254 1.73569 
2 8.06552 -9.54084 
2 8.70527 -5.50302 
1 21.2551 -1.95772 
3 -3.17969 -5.95411 
2 4.30282 -12.1358 
1 6.1645 -11.3437 
1 -3.87893 -6.60633 
2 -15.9325 -0.499764 
2 6.64735 -10.6227 
1 -0.278944 14.3983 
3 -5.98137 8.52638 
1 12.6188 -16.3566 
2 -11.2053 -7.93481 
1 -13.8759 17.2653 
2 -11.8489 3.55657 
2 5.33111 -5.90464 
3 5.56941 -9.0877 
3 -2.33563 -8.86093 
1 -1.35982 -9.22414 
2 -3.21953 -8.79122 
3 18.9141 18.2379 
2 -13.0241 7.30634 
3 9.97618 1.8776 
2 -5.73259 -0.564755 
2 14.3611 1.95696 
3 -8.40046 0.829745 
2 -8.85215 13.0614 
2 -17.4414 -12.4314 
3 15.057 6.64124 
3 -6.77073 -13.2637 
3 4.53551 27.3202 
2 -4.62197 9.67928 
1 -10.6057 -13.5997 
3 -0.945115 -8.35803 
2 7.04383 8.39861 
3 -6.08121 14.779 
1 1.99161 -0.853255 
3 19.8876 12.9692 
1 -3.9295 -8.27818 
2 13.3753 -6.81065 
1 -4.56183 7.74878 
2 6.81162 9.83205 
3 -9.78162 -4.85457 
2 -0.195015 -7.86981 
1 -9.98715 4.47496 
1 -15.7725 -2.49765 
1 -13.7225 3.8253 
1 9.19918 -3.2398 
3 -17.8606 -10.7623 
3 9.3743 -4.97181 
1 9.74891 14.906 
3 -9.03959 4.40872 
3 2.58288 -3.31831 
1 -15.7481 16.7974 
1 10.9334 -0.0603233 
1 -2.20892 9.13793 
1 -12.3482 -10.5437 
2 -19.6346 -18.0705 
2 10.2747 11.0588 
3 14.2264 -9.39536 
3 -20.2021 -8.63637 
3 18.5468 10.516 
2 -4.62429 -8.81069 
2 8.60501 -0.974597 
1 -0.555431 -9.88373 
1 20.1291 -6.18405 
1 13.2787 5.74077 
1 12.1822 -20.6599 
2 -11.9049 6.74837 
1 4.95269 6.04615 
1 -2.80236 4.31035 
2 14.7267 10.4781 
1 -12.228 -13.6285 
1 3.14115 -8.70936 
1 19.0912 0.76591 
1 3.15947 0.855463 
1 -0.907739 -7.32139 
3 8.61579 2.82836 
1 -1.26383 10.5899 
3 0.747917 5.04745 
2 -0.850624 -3.77153 
1 -4.31637 8.85525 
1 5.7739 -8.13762 
1 -3.74741 11.4547 
1 1.95537 -11.4981 
3 6.78799 -3.88434 
2 -0.679597 2.16468 
3 8.03027 -1.72126 
1 -1.74708 -4.28057 
2 -4.26558 -18.0103 
3 -15.009 -1.95282 
1 1.82447 1.28768 
3 15.8782 -11.6284 
3 10.1604 3.50132 
1 -10.4867 12.0534 
1 -18.9463 -4.9187 
1 8.85794 15.6791 
3 10.5489 11.8665 
1 -4.98099 -11.8898 
2 0.0392318 16.3521 
2 9.78498 6.1455 
1 -5.91221 -12.5248 
2 7.31521 14.5427 
3 11.2077 10.8707 
2 -21.0859 16.1842 
1 -1.25968 2.8092 
2 -12.172 17.2501 
1 -18.3823 -8.52993 
3 -3.14739 -0.168012 
1 -5.50063 -10.8601 
3 -1.69226 -1.52303 
3 7.75234 -5.1771 
2 -4.8208 -1.16153 
1 11.0131 14.4217 
2 1.0788 1.81627 
1 -17.3128 -13.3418 
1 2.6124 18.7164 
3 -9.00486 -9.3685 
1 0.314044 -7.11723 
2 -1.39263 -2.34012 
2 12.9103 10.6573 
1 -2.34364 18.2922 
3 14.277 -2.83807 
1 -0.175932 2.99944 
3 -0.479185 -0.175215 
3 10.1777 -3.28191 
2 8.86799 14.824 
1 5.2412 1.44438 
1 10.6451 -10.8401 
2 -3.59245 -7.44742 
1 -20.8657 -1.60841 
3 6.188 1.65812 
1 -4.51786 15.7338 
3 -1.53535 1.89822 
1 -5.16704 10.3259 
1 -3.82857 4.51852 
1 0.417336 -4.96302 
2 -1.76531 8.43887 
1 -11.6852 16.4502 
3 -16.6106 -8.53558 
2 -9.46534 5.22505 
2 -2.34269 5.02645 
1 10.5701 -8.96242 
1 9.30794 -15.5336 
2 -10.9444 -11.8595 
1 4.68133 -7.66768 
1 7.96715 -12.2311 
2 -2.49955 6.93948 
1 -4.29407 1.32502 
3 18.4751 9.41405 
1 12.8501 1.46083 
1 0.442178 -0.0335899 
3 -13.6964 -3.15055 
2 1.73366 9.29336 
1 23.0512 -10.3198 
1 19.333 8.86141 
2 5.20831 -14.3101 
1 -11.5139 5.95686 
3 0.742837 -15.993 
1 -10.4461 15.348 
2 -5.62425 -14.5696 
3 -22.9853 15.8563 
1 -9.57451 19.5502 
3 -2.5019 -5.05144 
3 1.01657 -0.791351 
3 -6.47484 -10.8841 
2 -9.22569 1.10194 
1 1.65168 -12.5642 
3 14.3595 -5.71924 
2 10.2761 -0.734383 
1 -7.78862 15.3708 
1 -7.04302 -2.55011 
2 9.19452 -4.08886 
3 -3.02721 -13.8718 
1 -1.73466 -17.3505 
1 16.5607 1.41351 
3 -0.599866 -5.67943 
1 -2.19882 -6.24051 
3 -12.7375 3.68726 
3 -6.22292 -16.1272 
1 8.48599 10.6142 
1 10.9269 16.0303 
1 -3.73434 9.76184 
1 -8.78607 -8.39461 
1 -6.61223 -9.11239 
1 0.170701 1.86195 
2 7.61356 0.489812 
1 5.98044 -10.0454 
3 -17.8848 -17.6639 
3 9.90932 -1.56582 
1 9.22516 3.57132 
2 15.0251 3.31089 
3 1.05759 -2.7795 
1 8.06464 3.64281 
3 12.4462 -11.3803 
1 12.0265 9.18343 
3 -4.29432 14.0402 
3 7.98768 -10.4193 
2 16.062 10.9724 
1 1.56367 -8.17164 
1 4.33795 0.859 
2 3.39694 -13.6791 
3 -18.7806 6.24232 
1 10.1751 -7.90248 
3 -13.7216 -12.4532 
1 -8.19551 -10.9493 
2 -1.65252 -11.109 
1 -6.41505 1.15091 
2 -7.82148 -8.03823 
1 -1.86016 14.3796 
2 1.5214 3.16988 
1 3.38674 -17.98 
2 15.1739 16.1324 
3 -14.6657 -9.0736 
1 -2.60191 12.2246 
1 11.1384 -4.72034 
3 11.7086 -8.8625 
1 7.42055 -7.75972 
1 -3.2713 1.81873 
1 5.0421 12.6162 
1 18.3435 -11.913 
1 11.7835 1.65517 
2 -11.3619 -9.27032 
2 7.07951 -5.7317 
3 -7.44259 3.33179 
1 8.91048 -10.7708 
1 3.69625 -14.4997 
2 13.2754 -10.3619 
2 0.958138 -8.88276 
2 -6.98165 -15.7031 
2 -13.8794 12.9545 
1 4.34492 2.05965 
2 12.0539 -8.05878 
1 -0.212106 5.39498 
1 -2.8275 -4.12821 
3 6.06652 2.90596 
2 4.97577 -8.49571 
1 -13.109 -14.2854 
1 -18.0117 -11.8047 
3 -11.6338 10.697 
1 3.43373 12.8342 
1 0.796005 7.01012 
3 6.45397 9.05319 
3 5.10568 -22.2861 
3 8.84752 -9.86959 
1 -12.0401 -7.6377 
3 -7.80673 -11.8844 
3 -14.0607 -5.70188 
3 -2.21707 -2.53047 
2 2.52222 -12.1715 
1 -7.92929 9.20283 
1 20.1716 -3.4262 
1 -5.80479 -6.38805 
1 -11.7533 -12.1756 
3 -9.3215 -11.1346 
3 13.0388 19.0885 
1 10.0354 -13.8807 
3 -1.68477 -12.5848 
1 5.16247 -10.766 
3 6.53457 -13.1509 
3 -12.9769 1.25392 
2 17.5013 5.48725 
1 14.629 20.0908 
1 -0.206545 13.2332 
1 0.873951 15.9154 
2 12.3143 -9.48114 
1 4.17411 -3.88818 
2 -13.3298 3.10239 
1 4.33544 13.5137 
1 14.8524 12.7772 
2 -10.7662 -10.6351 
1 -18.9086 -3.88944 
1 -12.4415 15.6884 
1 0.67524 3.56753 
1 3.45455 -1.78445 
2 -12.0314 -6.73588 
3 1.95081 8.45624 
2 -1.29053 -13.426 
2 -9.42259 -7.55463 
3 -9.7848 -8.4018 
1 5.93013 10.0244 
1 -1.75876 4.34631 
1 1.75633 7.54193 
1 -8.28777 -3.87516 
2 6.86161 -14.7263 
2 9.29684 16.4985 
2 -5.45248 12.0416 
3 -14.5872 7.01973 
1 -0.804334 17.8779 
1 7.80172 12.2847 
3 -9.656 13.4278 
1 6.51634 -9.04723 
2 10.9487 1.81953 
1 6.46685 14.8526 
1 0.0738002 -1.11159 
1 -6.22844 -7.46535 
3 -13.098 2.22513 
1 2.73405 19.8615 
3 16.834 -5.28487 
2 14.7764 -13.6621 
1 -8.76127 -5.01554 
2 11.5223 -6.35729 
1 -1.80998 7.51527 
2 3.13882 5.44561 
1 10.3928 7.05316 
1 7.58946 -15.2287 
3 13.7866 10.3998 
3 8.89536 6.13011 
3 -11.4204 15.4984 
1 -9.15041 9.66127 
1 -14.6959 1.55619 
3 -15.3195 15.8923 
1 -16.4068 -4.34792 
1 5.77092 -16.1698 
1 -14.1747 -1.19817 
2 -5.2641 13.7548 
3 -3.56995 15.5474 
3 3.37707 13.8877 
1 -5.16298 -8.07218 
1 0.950501 -3.768 
1 -15.1916 6.30491 
3 -5.028 -2.0844 
1 6.57736 4.55886 
1 -15.3302 -11.2044 
3 -14.9588 2.55289 
2 -12.2325 -2.65385 
1 -9.01396 14.1102 
1 -3.89256 0.339075 
1 -14.3413 -4.79182 
1 -10.8924 -0.34264 
2 -8.97446 -10.2676 
3 4.32736 -10.1334 
3 -0.0997666 0.713386 
3 -7.9351 -18.5598 
2 -8.12202 -1.90752 
1 -19.6582 -12.8536 
2 -17.7373 -2.65076 
3 2.97247 -6.84406 
2 -10.8196 1.45715 
1 -0.0633731 4.32687 
1 6.14364 0.704269 
1 2.27088 5.94494 
1 11.4609 -9.83113 
2 -10.4198 7.70565 
1 -12.1376 7.59581 
3 -3.20712 -12.1015 
3 1.19942 11.7411 
1 10.5218 -12.0066 
2 -8.26793 3.25398 
3 -2.69972 3.41599 
1 -7.64068 -21.2611 
2 16.9039 -6.14356 
2 -5.57636 3.77838 
1 1.5145 -14.2041 
1 8.43353 16.6999 
1 -1.03347 9.01148 
1 -16.0339 15.1065 
1 -16.7339 -0.13904 
1 15.1272 2.38904 
2 19.1237 -11.5653 
1 -3.89343 18.6477 
1 0.841703 0.933913 
3 15.5587 -1.88298 
1 14.2336 11.2398 
1 10.3699 12.8267 
2 -13.8448 16.466 
2 8.7539 -12.72 
1 15.9187 7.07662 
1 -3.61474 13.4856 
2 10.9453 13.5293 
1 -5.56092 -19.9644 
2 -9.12336 -4.216 
1 -10.8853 10.0606 
1 7.72517 4.99738 
1 3.08818 -22.7602 
3 5.1546 -4.02751 
1 11.7836 -19.2861 
1 1.07838 -10.554 
1 3.67608 4.72276 
3 5.88594 -6.53962 
3 13.4824 2.19927 
1 -20.4311 18.0954 
1 -4.96507 2.19949 
1 -0.635526 20.0435 
2 -0.863301 4.71594 
1 9.21027 14.0139 
1 11.0293 5.06496 
1 2.66601 3.09216 
2 -3.01399 -11.2287 
1 6.82579 -6.54315 
1 -12.8618 0.230318 
1 16.7296 11.5671 
1 -16.9651 16.6998 
2 -4.76654 0.554372 
3 5.18859 0.421256 
1 0.0508979 8.17321 
3 14.6496 8.66671 
1 10.8344 9.19625 
2 2.6003 -18.5973 
2 -4.15227 19.4923 
1 -3.64157 -16.3973 
3 18.9474 -8.30013 
1 10.5467 10.1606 
2 10.084 -6.56637 
1 15.8885 3.20388 
3 0.660601 -8.05953 
2 -5.09782 -2.9603 
1 -10.4549 2.31065 
1 -13.3653 12.0093 
3 1.08441 -13.3109 
3 12.1987 11.2775 
1 -6.13194 -5.36127 
1 13.3379 -2.95024 
2 7.54331 -2.41386 
2 -1.48751 9.74072 
1 1.75464 2.34943 
2 -16.2899 16.0501 
2 0.258391 6.24269 
2 10.6051 -17.7281 
1 -5.84337 4.63904 
1 -6.82789 2.46224 
3 -19.0249 -12.0094 
1 12.9426 -4.17251 
3 -5.33255 16.3087 
3 3.44022 16.72 
1 2.83957 7.8816 
1 -18.6327 -16.7363 
1 17.5435 12.2662 
2 -12.4675 -5.37613 
3 20.0084 8.19498 
1 5.25357 7.18908 
1 -1.83761 0.894577 
2 6.62042 -16.4815 
1 -5.14683 14.5853 
1 -21.3671 19.6514 
2 -10.8057 -16.7124 
1 6.68525 -2.78138 
3 -16.885 2.27471 
3 -8.28751 -20.4451 
2 5.26591 13.4536 
2 10.8877 -3.87839 
3 -21.4223 2.55009 
3 -4.77524 -6.43918 
1 6.93849 3.40331 
1 19.1767 -9.3146 
1 -9.77456 -16.639 
2 6.14479 7.1992 
3 -17.921 -3.56065 
2 -2.49695 -3.33433 
3 -19.572 15.7643 
3 -10.0868 9.50439 
1 -2.26753 -11.7336 
1 4.36131 11.2961 
3 16.164 9.56773 
2 -20.7225 17.274 
1 22.0888 18.2859 
3 9.79055 21.584 
3 6.19253 -14.0862 
1 -9.98582 6.99972 
3 -5.82252 5.65111 
3 -11.3368 12.6863 
3 -12.6718 13.9377 
3 13.8227 1.24107 
1 0.783225 14.783 
3 11.7459 -7.23454 
3 -9.77877 -1.71534 
2 -1.8021 -7.10309 
1 16.7653 7.75408 
3 18.5136 12.2111 
3 -5.39129 -15.5706 
1 -17.3732 -9.11895 
2 13.0834 4.90625 
1 -4.19039 6.71325 
1 14.2038 2.89284 
1 17.3742 -8.62989 
1 -8.16348 -0.102611 
1 5.49812 -0.870232 
1 5.28635 3.40709 
3 4.04599 -8.40584 
3 7.65755 11.2956 
2 -1.03857 0.492179 
2 14.7991 11.9408 
1 1.97261 -5.41956 
1 7.14245 -17.1957 
1 -12.5038 9.22544 
3 -4.21641 10.5892 
1 7.15577 -13.8502 
1 -6.51004 3.75067 
1 -5.96288 6.62255 
1 -21.0977 -3.81381 
1 1.96316 -2.60747 
1 -3.39396 19.8482 
3 -12.2586 5.37729 
1 -7.70522 8.10438 
1 -15.4831 -12.4859 
3 4.61492 17.9971 
1 -6.9057 8.83935 
1 7.54437 -8.8215 
1 -3.59207 -10.4008 
3 -1.09435 -19.1942 
2 13.3544 18.2194 
3 -0.611214 9.88938 
3 -9.7382 -21.459 
1 -4.08595 -1.71602 
1 4.37347 -15.97 
3 -0.968889 3.73206 
1 -0.603117 -2.92018 
2 11.2868 -12.3906 
2 -7.25663 4.22423 
1 2.78233 1.93428 
2 7.38855 -12.9557 
2 -2.55134 -1.69655 
3 -3.98701 -0.642807 
1 1.43956 4.38817 
3 -8.70257 8.65132 
1 14.3455 9.61732 
1 -12.2866 2.8054 
3 12.1681 8.0861 
1 3.8621 -12.9391 
2 -13.4236 -1.54737 
3 -1.52318 -0.268225 
1 11.2076 -8.03878 
3 12.8825 -2.08721 
1 -16.007 2.65456 
3 15.3255 13.5884 
1 0.305079 -11.3683 
1 -23.5271 11.4677 
3 -11.206 8.11051 
2 -3.75636 8.16977 
1 2.22622 -4.17818 
2 12.2085 7.20486 
2 -2.85782 9.67156 
3 -14.3775 -10.956 
1 -11.0534 7.15406 
3 -12.9563 -15.2834 
2 13.2613 6.65642 
3 4.53532 4.10231 
3 6.57038 -15.6097 
2 4.50214 -4.70295 
3 4.50094 15.168 
3 -7.02353 9.73637 
1 -3.17204 -2.33656 
1 13.1633 11.4741 
1 -10.0302 -18.6 
1 -1.11881 -11.8195 
1 -6.15733 13.8226 
3 13.7232 14.0884 
2 -5.91022 21.2606 
1 12.1544 20.557 
3 -8.71613 16.7202 
2 -3.17449 2.72199 
2 -5.12617 6.91823 
2 15.1347 -6.20227 
2 -0.430701 -6.60786 
2 -0.936665 -0.941284 
1 -2.90669 -7.99905 
2 -5.08365 8.4305 
3 -11.0286 0.629608 
2 -5.28304 -7.18468 
3 -18.8112 0.336211 
3 -13.4315 -0.624013 
1 -17.505 -0.987819 
3 -2.05403 11.2074 
2 3.5975 -9.5357 
1 14.6926 14.3124 
1 -5.36592 9.28339 
3 -10.7265 -2.27107 
2 1.10989 -11.7849 
3 4.0314 5.69931 
1 -0.519014 -13.9647 
2 -2.38489 1.64818 
1 -9.48272 7.91879 
2 11.4553 11.779 
3 -16.1671 6.50555 
3 11.5411 -14.8895 
1 -6.74654 5.19487 
1 11.2345 3.46723 
2 3.01522 4.06363 
2 1.679 5.27503 
3 15.8441 -10.206 
1 -5.68108 -1.43229 
3 10.1601 13.9592 
3 4.99706 -24.7661 
1 6.83332 -12.2047 
3 12.0275 -14.0092 
3 5.99124 15.783 
3 -4.45491 -7.43998 
3 10.5813 -9.91368 
1 22.1583 -8.69812 
1 7.4443 9.28176 
3 6.22839 -5.58375 
3 13.7878 8.11537 
1 -7.0108 14.4993 
1 -16.478 13.46 
3 9.41318 1.03824 
1 6.86729 13.7104 
2 19.2392 -6.51474 
3 -7.36782 0.464508 
2 -8.92273 -0.671966 
2 11.5746 5.79431 
1 17.4183 -6.88801 
2 -16.4131 -15.4464 
1 -11.4191 -3.01813 
1 2.95038 -15.2748 
1 -4.92139 -0.341631 
1 -5.0956 -5.53572 
3 10.5744 8.31024 
3 16.6218 3.82603 
2 -2.58262 -12.6287 
1 -11.4258 -11.1396 
1 -8.00219 -6.51963 
1 -10.1184 0.996084 
1 -12.5141 11.2139 
2 -8.6917 -13.4493 
3 -0.989148 14.9782 
1 1.16664 5.94991 
2 5.3907 15.1446 
3 -8.83709 2.60134 
1 -2.26299 10.2498 
2 -0.241999 -12.046 
1 -10.2696 3.45926 
3 1.38975 -4.64351 
3 5.58012 4.42496 
1 12.4237 -6.51316 
2 9.70711 -8.65206 
3 3.49309 2.5787 
3 -9.65834 1.88681 
3 -4.17138 -2.63475 
1 9.6354 -5.82641 
1 1.00647 8.74951 
3 16.3975 -6.88726 
3 9.90339 0.151611 
1 7.83459 7.90354 
3 -8.98995 10.7689 
3 -15.0041 -0.7425 
2 17.1182 18.6901 
1 -0.116961 15.5118 
1 13.5712 13.0878 
2 8.16246 9.76388 
1 -13.8254 -7.32371 
1 5.66486 -12.4867 
1 -8.72077 11.6429 
2 -13.7565 1.65492 
1 5.82424 -14.9847 
1 -2.83895 0.857559 
1 -20.7982 -2.66779 
2 -18.2699 -7.61148 
3 -1.67848 17.5741 
1 14.0683 15.1255 
3 -8.11347 -1.05951 
1 -8.13989 -14.0998 
1 -10.4423 17.0291 
1 -7.92178 2.471 
2 -12.2782 -11.3959 
1 -16.5946 -14.5407 
1 6.95177 2.29333 
3 -9.97035 17.8438 
2 1.53019 15.3086 
1 -6.24459 -22.5941 
3 15.3384 -14.2918 
3 -8.91589 7.03294 
3 -15.8865 -7.72111 
1 -14.7216 13.172 
2 12.5579 -3.35324 
2 -16.219 0.527009 
2 2.76261 -4.90065 
1 -2.15086 -13.4381 
3 9.33254 5.27736 
3 -6.76705 -21.5601 
1 -5.33897 1.20747 
3 -1.39435 22.5853 
2 21.2214 13.933 
2 -8.74431 -5.88762 
1 -15.4287 14.0104 
3 -6.74256 7.87941 
1 -7.34382 -7.30597 
1 -14.9057 -14.4705 
2 -10.5853 -3.23446 
1 14.0349 4.92296 
2 2.87044 -2.44007 
2 -12.3504 1.87928 
1 1.62476 -9.53299 
3 -4.10442 -5.65935 
1 7.0741 1.17789 
2 -9.69369 2.74203 
1 17.6221 8.89562 
2 -6.04753 -8.31155 
ITEM: TIMESTEP
1
ITEM: NUMBER OF ATOMS
1290
ITEM: BOX BOUNDS pp pp pp
-1.6448100000000000e+01 1.6448100000000000e+01
-1.6448100000000000e+01 1.6448100000000000e+01
-1.0000000000000001e-01 1.0000000000000001e-01
ITEM: ATOMS type xu yu 
1 -7.11406 -5.07005 
3 -11.6898 -0.986252 
2 7.62539 13.2012 
1 -4.93912 -12.9539 
1 16.7682 -13.4104 
1 0.919021 -15.0188 
1 -18.6087 -6.73308 
2 3.80923 -15.3626 
1 15.5687 10.2937 
3 4.81354 -12.8489 
1 5.89683 5.41549 
2 0.285305 11.5828 
3 -3.38757 -3.24745 
3 -20.1958 14.1676 
1 -0.653451 6.34315 
3 4.42998 -13.7918 
3 -16.3178 12.511 
2 -15.503 7.12739 
1 1.64116 -15.9037 
1 8.71505 -8.93959 
1 9.01917 7.88884 
2 16.4681 4.69308 
3 -2.684 -16.7457 
1 -2.90944 -9.62853 
1 9.4542 -7.12428 
1 -7.80767 -8.98371 
2 -14.6494 0.691475 
1 15.1994 -5.2536 
2 -14.3526 8.50599 
3 -20.2516 13.178 
3 -21.5288 0.79024 
1 20.8088 13.1457 
2 2.53091 -16.1393 
1 -4.62361 16.8413 
2 -6.46656 -1.82032 
1 -0.72912 -1.74832 
1 -3.08117 5.38927 
1 -1.95787 13.1302 
1 0.74287 13.6761 
2 9.58823 -2.42594 
2 12.3696 19.6945 
2 -10.1406 0.0840882 
3 12.1848 3.34075 
1 -7.30548 -1.51258 
1 0.119374 9.30091 
1 -18.1459 1.09184 
1 -9.76895 -5.86261 
3 2.98687 -5.74681 
2 -11.7437 9.85918 
1 5.91234 -3.52938 
3 18.2383 4.17702 
3 0.0561357 -4.05941 
1 10.5851 -15.0947 
1 15.8235 14.5165 
2 11.3318 -2.1684 
1 -3.42917 14.5736 
1 -8.87521 17.6329 
2 -9.99316 -14.167 
1 7.23173 -9.86135 
1 -13.6832 6.63262 
1 -1.57869 -3.23494 
1 3.57266 -2.90658 
3 9.13379 -7.99902 
1 -17.4974 -7.09888 
2 15.7621 12.87 
1 -18.7878 7.14494 
1 -6.03475 -9.95477 
3 -8.50767 -7.41286 
2 6.13618 3.76584 
2 15.0346 -9.85634 
2 13.529 -0.389065 
3 -3.28688 6.34469 
1 4.43169 -1.39277 
1 -21.021 -5.5414 
2 13.7694 -2.03373 
2 8.48151 5.381 
1 -2.28715 2.5423 
1 21.5582 9.09122 
3 11.5681 15.3195 
1 16.4737 -10.917 
3 -5.96495 2.01388 
3 9.10816 -13.5287 
1 -8.26792 -2.75157 
3 2.15569 3.84991 
1 9.0107 -1.77619 
1 -12.1672 -9.47312 
1 8.96878 -11.8458 
1 9.65813 8.78257 
2 13.6215 -8.62268 
2 14.9552 4.82367 
2 -7.34026 -11.0973 
3 2.68031 10.9096 
1 9.91196 4.43144 
1 -16.3375 -9.44669 
3 -4.81259 3.21019 
3 17.823 -18.0058 
1 6.01115 -1.87251 
3 -4.90257 11.2671 
2 2.22271 -8.84859 
1 -2.43528 -0.790877 
2 14.3393 13.4789 
1 -13.3749 -10.822 
3 -2.58502 15.0386 
1 5.001 14.3313 
1 -1.85254 -16.2591 
1 13.3282 -5.94014 
1 -8.1509 4.121 
1 -16.994 15.5912 
3 6.97685 7.48726 
1 5.51855 -13.4983 
1 -5.90103 -2.59256 
3 -12.5373 -1.57276 
1 -6.53801 0.0165969 
3 -15.6587 -15.0892 
2 -7.34579 -0.522133 
1 -12.0085 0.969469 
1 3.92673 15.8956 
3 -7.18993 13.5902 
1 -23.9418 -14.4986 
1 -9.43779 12.4149 
3 5.11528 -11.6921 
2 -13.8875 -10.1351 
1 -5.78599 2.91921 
1 3.29519 -10.2826 
2 11.4106 8.48319 
1 14.584 -1.84322 
1 -4.44546 -3.5585 
1 12.0719 10.3319 
2 18.5251 -3.78075 
3 13.9362 19.4175 
1 10.4751 -2.35825 
2 -0.950352 7.17441 
1 4.41396 9.044 
1 -13.0642 -2.36912 
3 17.1866 -10.3466 
1 -14.5649 5.25241 
1 -4.91335 -9.82808 
1 -0.778607 1.31197 
3 -12.6333 -4.4484 
2 4.09799 14.3726 
1 -8.05804 13.3995 
3 -4.54918 13.085 
3 -10.993 -18.3531 
2 2.27873 -6.30215 
1 4.47772 -9.21813 
1 -0.623878 -10.9349 
3 15.3347 -8.15516 
3 -0.138271 -15.6993 
1 -3.97108 -9.32179 
3 13.5485 4.04418 
2 -2.04932 -9.74337 
3 -15.462 1.06836 
1 16.5727 8.7577 
1 19.3179 13.8707 
2 5.11706 -9.83617 
1 -5.71628 -13.6794 
2 -7.56467 -3.28385 
2 3.63962 1.56074 
3 -4.84265 18.9417 
3 10.9433 -14.025 
1 6.20636 8.05688 
1 15.6309 4.28653 
1 -16.8589 -2.75659 
1 7.31125 -11.2455 
1 -4.736 17.9899 
2 -16.2612 14.268 
2 -16.9405 -3.62918 
3 -12.5684 10.2585 
1 12.2173 5.19191 
1 -14.6972 -2.93769 
2 -7.28435 -13.9638 
1 -9.26796 6.13589 
1 12.3397 6.26674 
2 2.61627 12.4459 
3 -13.0133 -9.9148 
3 1.98673 -15.0113 
1 4.83169 -2.96232 
1 -6.40561 -20.7023 
1 4.16641 7.71544 
1 -12.0453 -14.7073 
1 -15.4872 4.61899 
2 -14.0113 11.424 
3 -5.6522 0.362005 
1 13.4102 -1.27 
1 11.947 0.00891519 
1 -1.45023 5.46386 
2 -1.82244 3.48022 
1 -9.19608 3.52945 
3 -5.52099 -9.05239 
2 -5.46991 -4.65037 
2 -12.9317 -9.00153 
2 -2.85316 -19.8766 