ITEM: TIMESTEP
0
ITEM: NUMBER OF ATOMS
1290
ITEM: BOX BOUNDS pp pp pp
-1.6448100000000000e+01 1.6448100000000000e+01
-1.6448100000000000e+01 1.6448100000000000e+01
-1.0000000000000001e-01 1.0000000000000001e-01
ITEM: ATOMS type xu yu 
1 -7.16329 -5.22841 
3 -11.6668 -0.96764 
2 7.52837 13.2164 
1 -4.90952 -12.9604 
1 16.6441 -13.4975 
1 0.885531 -15.0782 
1 -18.6388 -6.75742 
2 3.83019 -15.2892 
1 15.4741 10.2767 
3 4.8555 -12.7676 
1 5.80352 5.30845 
2 0.355065 11.6224 
3 -3.47367 -3.38593 
3 -20.1921 14.1589 
1 -0.621797 6.41494 
3 4.55533 -13.8127 
3 -16.3264 12.5545 
2 -15.4085 7.07223 
1 1.7363 -15.8537 
1 8.71179 -8.87803 
1 8.92225 7.90597 
2 16.4253 4.71287 
3 -2.6256 -16.8718 
1 -2.89246 -9.61418 
1 9.51466 -6.98584 
1 -7.76271 -8.98729 
2 -14.7112 0.661136 
1 15.1002 -5.31069 
2 -14.4255 8.52253 
3 -20.248 13.1407 
3 -21.4879 0.756668 
1 20.9069 13.1414 
2 2.57867 -16.1328 
1 -4.51961 16.9138 
2 -6.49697 -1.91601 
1 -0.725136 -1.93147 
1 -2.98267 5.29165 
1 -1.90986 13.2064 
1 0.755979 13.6186 
2 9.66711 -2.40588 
2 12.3989 19.6437 
2 -10.1554 0.146919 
3 12.1151 3.36015 
1 -7.34755 -1.5842 
1 0.12873 9.29731 
1 -18.0886 1.21565 
1 -9.74801 -5.75705 
3 2.96665 -5.78757 
2 -11.855 9.82902 
1 5.8361 -3.42741 
3 18.2882 4.2606 
3 -0.10201 -3.96339 
1 10.5713 -15.0326 
1 15.8055 14.5362 
2 11.3851 -2.12642 
1 -3.44191 14.5202 
1 -8.9487 17.6918 
2 -10.0346 -14.0779 
1 7.20966 -9.89804 
1 -13.6355 6.68893 
1 -1.70301 -3.34514 
1 3.658 -2.88011 
3 9.11701 -7.97062 
1 -17.4532 -7.06679 
2 15.7364 12.8545 
1 -18.8725 7.16853 
1 -6.0224 -9.98758 
3 -8.44539 -7.42685 
2 6.21206 3.70671 
2 14.94 -9.87418 
2 13.43 -0.392678 
3 -3.23837 6.38376 
1 4.39507 -1.27076 
1 -21.0095 -5.55235 
2 13.7172 -2.14923 
2 8.41394 5.37483 
1 -2.42075 2.37379 
1 21.4638 9.05444 
3 11.444 15.276 
1 16.4141 -10.8791 
3 -6.05469 1.96357 
3 9.07967 -13.5244 
1 -8.18612 -2.77021 
3 2.13203 3.74497 
1 8.98372 -1.8389 
1 -12.224 -9.34701 
1 8.98248 -11.8768 
1 9.64806 8.73279 
2 13.6135 -8.61238 
2 14.8983 4.82041 
2 -7.30951 -11.0567 
3 2.63602 10.9206 
1 9.82927 4.45914 
1 -16.3022 -9.50899 
3 -4.83454 3.15795 
3 17.9378 -17.9493 
1 5.96838 -1.71117 
3 -4.86024 11.2752 
2 2.33275 -8.80034 
1 -2.35412 -0.859663 
2 14.4137 13.5931 
1 -13.3082 -10.9212 
3 -2.58482 14.9825 
1 5.0357 14.3192 
1 -1.81241 -16.3322 
1 13.3738 -5.99811 
1 -8.08305 4.2041 
1 -16.9352 15.603 
3 6.84691 7.47919 
1 5.50675 -13.4664 
1 -5.91887 -2.63232 
3 -12.5491 -1.47451 
1 -6.5963 -0.0645871 
3 -15.5334 -15.0829 
2 -7.37044 -0.515918 
1 -11.963 1.03557 
1 3.94188 15.9319 
3 -7.0312 13.6366 
1 -23.9958 -14.4515 
1 -9.44085 12.4799 
3 5.01581 -11.7533 
2 -13.885 -10.2623 
1 -5.81048 2.93443 
1 3.37985 -10.3383 
2 11.3564 8.56359 
1 14.5668 -1.87316 
1 -4.46439 -3.69467 
1 12.0217 10.3074 
2 18.4775 -3.85888 
3 13.887 19.4148 
1 10.53 -2.31339 
2 -0.956288 7.23097 
1 4.36328 8.95505 
1 -13.0114 -2.35999 
3 17.186 -10.2971 
1 -14.6297 5.26047 
1 -4.95238 -9.82173 
1 -0.843649 1.29724 
3 -12.6755 -4.4856 
2 4.15596 14.311 
1 -7.97169 13.362 
3 -4.49332 13.1013 
3 -10.9684 -18.344 
2 2.2563 -6.303 
1 4.5814 -9.2945 
1 -0.588561 -10.8582 
3 15.3693 -8.09485 
3 -0.15923 -15.7395 
1 -3.95346 -9.43203 
3 13.575 4.10885 
2 -2.035 -9.71126 
3 -15.4975 1.06164 
1 16.5345 8.65222 
1 19.2382 13.8423 
2 5.17337 -9.9448 
1 -5.7415 -13.6442 
2 -7.51518 -3.35556 
2 3.58654 1.61716 
3 -4.81325 18.9568 
3 10.9471 -14.094 
1 6.04968 8.03137 
1 15.6292 4.25264 
1 -16.8999 -2.79023 
1 7.37046 -11.2632 
1 -4.67826 18.0054 
2 -16.2399 14.3537 
2 -17.0147 -3.6624 
3 -12.6355 10.2478 
1 12.2249 5.2313 
1 -14.7075 -2.99191 
2 -7.29288 -13.8874 
1 -9.41811 6.07096 
1 12.3281 6.41034 
2 2.55987 12.599 
3 -13.0573 -9.92383 
3 2.00417 -14.933 
1 4.80951 -2.9107 
1 -6.29502 -20.6989 
1 4.09708 7.65976 
1 -12.0806 -14.7071 
1 -15.5835 4.58359 
2 -14.0703 11.4732 
3 -5.71586 0.314048 
1 13.4054 -1.31011 
1 12.0628 0.0432063 
1 -1.41413 5.63349 
2 -1.82796 3.66574 
1 -9.24253 3.54938 
3 -5.61088 -9.08866 
2 -5.4274 -4.72573 
2 -13.0663 -9.02492 
2 -2.78757 -19.931 
3 -4.09314 -12.4476 
2 13.1431 12.4035 
2 -9.57833 8.826 
1 -13.5215 5.59297 
2 7.58584 -4.14603 
1 16.5414 5.62382 
1 13.243 -9.44097 
1 -7.27836 18.1029 
1 6.78159 -4.74059 
3 10.5617 19.8731 
2 9.79818 -10.4181 
1 8.50574 -4.58055 
2 10.7207 4.30926 
3 -11.8593 0.0504459 
1 -12.63 6.34029 
3 -9.14459 -14.2069 
2 6.04946 -0.0848797 
1 -5.57122 -3.79518 
2 5.54279 -7.31082 
1 -12.9714 -12.1199 
1 -9.93859 10.4558 
1 10.0857 -4.23029 
1 3.83599 -6.20618 
1 18.817 19.3621 
2 -15.3384 -4.82916 
2 11.6656 -0.743741 
3 -4.85683 5.09203 
3 15.538 8.64132 
2 -1.05792 12.8707 
2 0.157578 -13.3104 
2 -5.30877 15.4682 
1 2.77418 -0.149081 
1 -9.82113 -2.71176 
2 9.75514 -14.6918 
2 12.9566 -11.9768 
2 -6.35685 13.0701 
1 8.04868 -17.8634 
2 9.57451 2.66892 
2 0.24491 10.2005 
3 4.20046 -20.7273 
1 4.74552 4.90956 
2 -19.2538 16.6331 
1 -4.71456 4.12004 
2 -7.2301 -12.5292 
3 -13.9506 14.8313 
1 3.30281 6.21298 
1 6.73019 6.51196 
1 -6.7679 -11.7816 
3 1.81112 -18.4675 
2 1.09836 7.91152 
1 -8.95318 -1.4838 
1 6.9527 0.0124781 
3 -11.4125 -10.077 
2 -6.8865 15.458 
3 -6.60438 -1.01546 
3 21.5299 -12.7491 
1 -15.1628 -5.72426 
1 7.78251 6.05511 
1 0.487877 -12.4732 
1 4.09168 -11.253 
3 -13.0349 -13.1701 
2 -8.56457 14.9148 
2 15.7326 6.11206 
1 3.31252 11.6761 
2 -10.2938 -20.0722 
1 2.40582 -17.7101 
1 8.40163 13.1405 
3 2.96545 -16.9478 
1 -16.6301 -12.4798 
3 -4.45118 -10.6751 
1 15.0441 0.110944 
3 -10.7359 11.0316 
1 15.769 11.9569 
1 -3.47912 27.8252 
3 3.53763 8.46307 
2 -2.32361 0.0479511 
2 15.9625 7.88135 
3 11.6442 4.36027 
2 -12.2829 20.2049 
2 1.73175 -3.51314 
3 9.41896 13.1065 
2 3.52797 -22.1131 
3 -11.9001 -3.82006 
1 -13.5915 -4.17424 
1 -8.77295 15.7737 
3 -7.68546 5.06757 
2 -18.3059 -4.51002 
1 -9.86646 -3.80494 
2 15.1453 9.44475 
3 -12.8233 -7.11838 
3 -17.1977 -15.2941 
3 11.3737 6.72328 
2 10.2568 -5.12695 
1 14.1655 -10.2991 
2 -3.74799 -4.2293 
1 14.547 4.00411 
1 0.348155 -5.99156 
1 -6.1101 15.8456 
2 1.74257 11.0356 
3 -6.47549 18.6632 
1 8.01729 1.92025 
3 -13.0057 4.71835 
1 3.56138 -7.66796 
2 16.7382 -11.728 
1 -14.9965 7.84735 
1 -11.5179 11.6901 
1 2.12999 -7.172 
3 -7.2016 12.6216 
1 8.38447 6.99271 
2 16.1355 -7.68532 
2 18.4991 3.35784 
3 1.93048 -16.8109 
3 17.6153 -13.4553 
1 7.89754 -5.941 
1 -10.2124 -7.59831 
3 -12.3608 12.231 
1 -12.0287 4.45039 
2 15.6075 1.58548 
1 -3.89197 -11.488 
1 -0.438916 12.1055 
1 3.67525 -5.07483 
3 -2.84625 -7.05834 
1 -19.577 21.7201 
2 -11.4318 -14.092 
3 14.2462 -14.4215 
2 -14.5187 14.1425 
1 2.71417 9.00434 
2 1.66995 6.54621 
2 8.20954 24.7696 
3 10.6308 6.03857 
3 -6.99731 -8.21492 
3 -13.9835 -2.24338 
1 11.3011 7.67443 
3 12.6039 -0.747107 
3 -20.0955 -5.20471 
2 -15.3944 -9.46946 
3 3.3542 -12.1987 
1 -18.8518 17.4609 
3 -3.55881 12.4305 
3 -11.2207 2.97039 
1 10.1866 -16.0661 
1 -1.77077 -8.01919 
2 -9.68689 -9.32699 
1 9.55554 10.4 
1 -5.02096 6.05537 
1 8.68633 4.52194 
1 8.49876 0.89932 
1 1.66292 -20.1875 
3 5.3062 2.3292 
1 9.39256 -0.673653 
3 3.61309 -0.695488 
1 -7.09152 22.7142 
1 18.0841 -7.82169 
3 5.78676 6.28742 
2 0.0105184 18.0493 
1 0.870776 10.8406 
3 -10.527 -9.57855 
3 -11.2392 5.0448 
3 -9.02732 -3.28136 
1 2.50308 13.4895 
2 18.2147 -12.8282 
1 -10.2317 -11.3336 
3 -3.76389 -15.3824 
3 2.76296 -9.58331 
3 6.44984 -7.39383 
2 3.56623 9.35151 
3 15.6904 5.21287 
1 12.9434 7.50321 
3 -1.39842 18.6373 
2 9.78832 7.77108 
3 21.5262 -15.3641 
1 -11.6355 -5.84633 
3 -4.50278 -4.72473 
1 -10.7647 -1.38084 
1 -15.4246 0.106669 
2 1.62874 13.5792 
2 0.26352 -3.15972 
1 -8.61007 5.35123 
3 18.2268 16.7857 
1 -11.9086 14.7718 
2 -1.02561 11.4433 
3 -0.843263 -16.7976 
2 -8.52923 6.24332 
1 0.298934 -2.26765 
1 2.2206 11.7846 
1 -7.89101 -15.7876 
1 9.08641 1.88936 
2 9.73533 12.2647 
3 15.7982 0.730065 
1 14.2732 -0.690616 
2 13.7065 9.06342 
1 8.39946 8.84109 
2 -10.7436 -6.00386 
3 -6.54166 -3.4442 
1 -10.926 -4.03662 
3 7.48022 -16.2819 
2 1.10512 -5.51273 
1 0.0686789 -8.71054 
3 -9.44668 -17.7996 
2 3.61347 0.199122 
3 -8.01912 6.98775 
3 -16.1543 -3.44832 
1 1.52047 0.13037 
2 -16.4522 -2.02581 
2 1.26132 -7.30104 
1 -5.67233 7.6241 
1 -11.7381 -4.77374 
2 5.20476 17.3945 
1 -10.6917 -5.124 
2 9.93503 9.59524 
2 11.9091 14.5425 
3 3.25109 -4.1961 
2 4.14394 -7.01957 
3 6.79573 5.52047 
3 8.76117 -6.35499 
3 0.724686 2.66209 
1 14.8931 5.72935 
1 -3.18912 7.40363 
1 17.9506 11.4143 
1 -11.1037 -6.83716 
1 -6.2588 17.747 
1 -7.358 10.6127 
2 -14.6495 17.6974 
1 -13.5764 9.94358 
3 -8.15779 -22.8462 
1 6.06842 -19.8213 
1 5.34797 -4.95497 
2 12.0602 -4.67245 
1 17.1384 -1.47402 
1 -8.58905 20.3521 
3 -0.0732949 7.22116 
1 -14.3328 15.7568 
1 -0.243449 10.9641 
3 -10.1437 -6.64464 
1 -11.5045 2.04592 
1 -7.12462 16.3226 
3 -6.28765 -4.46882 
1 -10.8127 13.5489 
2 7.40896 4.12608 
3 -8.03781 -5.58493 
3 6.57119 10.6645 
3 2.6439 -7.97302 
1 9.65945 23.3624 
1 7.521 -3.25225 
3 14.0188 12.28 
2 14.1968 -11.176 
1 9.62386 -12.7448 
1 -3.8209 3.35 
3 5.04653 -1.96082 
2 8.48006 11.4631 
3 -2.4952 8.15066 
1 15.0434 7.75892 
1 -7.20584 -4.16738 
1 12.4315 -10.3486 
1 -9.19197 -6.77184 
1 -0.697726 -4.72872 
3 -20.4233 2.40613 
2 -10.6269 6.34622 
2 2.26625 0.582153 
3 -4.09095 2.36678 
1 10.8215 -5.82175 
1 6.76862 11.6252 
1 15.9775 -6.02366 
2 23.2931 17.0939 
1 -4.01062 5.61176 
3 -0.773045 8.08598 
3 -16.6522 -1.15502 
2 12.2931 0.89025 
3 9.38449 6.9866 
2 16.9427 9.47541 
1 10.8566 -6.9724 
1 -10.4321 8.60566 
2 10.2048 5.26068 
2 -7.92811 -4.7108 
2 17.2166 13.231 
2 7.73841 -6.79835 
3 11.3741 12.7401 
1 19.5671 -5.23552 
1 16.596 10.3205 
3 6.91149 12.5867 
1 10.492 2.65189 
1 -4.52118 12.1592 
3 -1.25631 -6.43931 
2 11.5999 -10.7039 
2 2.81243 -1.03902 
3 1.04162 9.79023 
1 -5.81619 11.2224 
2 7.51988 6.92475 
2 6.76592 -8.22834 
1 8.46141 -7.27763 
2 -14.288 6.08979 
1 -15.2576 3.55261 
2 5.68602 -2.5644 
2 4.18661 -2.16512 
3 8.33562 -2.63745 
1 -9.82932 -0.717026 
3 5.89949 12.1042 
3 5.94489 14.0262 
1 -10.3667 5.50404 
3 -3.28402 -1.30086 
3 9.03246 9.58213 
3 -11.7458 -8.44161 
2 -9.00799 -2.3736 
1 7.0472 -1.61485 
1 12.6023 4.18879 
3 7.90504 -18.8481 
3 -7.83186 -13.172 
1 1.31998 -1.83656 
3 0.514631 -14.1298 
1 17.6747 10.0004 
1 2.26861 -10.4203 
2 8.25233 -11.3687 
2 4.92657 9.66184 
3 13.781 -7.69163 
1 1.35988 -6.39009 
1 2.42755 4.71212 
3 15.1957 11.1794 
2 9.12406 0.194111 
1 -14.0288 2.55001 
2 0.227438 -10.4357 
1 13.0897 0.441351 
1 7.44564 10.2442 
2 -8.01479 -16.6691 
2 15.9679 -5.1401 
3 -14.4481 -6.79974 
1 0.645896 -9.63623 
1 0.589245 12.4953 
2 3.39321 7.10257 
1 11.3713 -15.939 
1 -9.25339 0.231425 
2 17.2905 1.93621 
3 11.1877 -3.02018 
1 -1.51686 -5.47857 
2 -2.82312 11.2259 
1 13.0657 9.75549 
2 -8.58029 7.71062 
1 5.04786 -16.9443 
1 -12.9908 14.8244 
3 -17.9886 16.9766 
3 8.37705 29.2389 
1 4.43414 -0.164539 
1 -2.31056 -10.5758 
1 -20.102 -7.59618 
3 -2.67789 -19.0295 
3 19.5597 15.7394 
1 -2.74657 -15.6006 
2 -1.02793 16.9773 
2 -12.0956 8.47171 
2 -8.16253 10.9544 
1 18.1423 -10.0853 
3 7.56314 -0.76535 
1 -14.3197 -0.16859 
3 7.92945 -14.4139 
2 -6.71974 6.02163 
3 -2.32464 5.97038 
1 4.92919 -6.60015 
3 -13.4188 10.9046 
2 7.72207 2.7712 
1 3.71934 3.516 
2 14.8548 -15.0428 
2 5.98172 -4.31804 
1 8.34233 -0.195172 
2 8.44508 -15.2141 
1 -1.55212 12.1549 
2 5.03882 11.7157 
2 -12.4887 -0.586739 
1 13.1189 3.19984 
1 1.93873 10.1753 
1 -3.21745 8.76204 
1 5.43129 8.94103 
1 -7.5053 1.53421 
3 -3.22693 10.4588 
1 5.73293 -21.7447 
1 12.3933 -17.5385 
3 -11.0923 4.03776 
2 -8.65522 -11.6709 
2 -6.30184 9.35761 
1 19.9614 -16.1833 
1 -10.3653 -12.4841 
1 10.4859 0.996142 
1 -7.02809 6.88273 
3 -17.4246 -4.42803 
3 -19.8096 -15.5881 
3 -1.57269 6.60156 
1 10.9651 -1.30593 
3 2.33628 -1.77218 
1 -6.93772 -6.32265 
2 1.96478 -13.3966 
3 2.54496 6.79278 
1 2.94773 -11.3276 
3 4.18092 6.67436 
1 -7.6575 6.01982 
1 8.12484 -13.3945 
2 17.3272 10.8066 
1 19.0301 7.77407 
3 -9.46831 -12.0643 
2 11.3394 9.76087 
2 -13.8869 4.77796 
2 8.03689 15.9286 
3 4.5021 2.95019 
1 11.4276 -11.5665 
1 -12.7996 -8.17883 
3 -8.0145 -9.94745 
1 -15.3055 -3.94653 
3 8.83728 12.2676 
3 6.45972 -0.853687 
1 12.9474 8.64286 
1 4.1211 10.0729 
2 -8.12928 -14.9515 
2 -3.1421 -14.7699 
1 -8.59605 1.7575 
2 7.99837 -9.49335 
2 8.68222 -5.46084 
1 21.1827 -1.98864 
3 -3.13985 -6.01091 
2 4.22606 -12.1451 
1 6.16203 -11.3162 
1 -3.84333 -6.7139 
2 -15.9567 -0.599708 
2 6.74583 -10.6466 
1 -0.167267 14.2803 
3 -6.01752 8.52024 
1 12.5833 -16.4219 
2 -11.0946 -7.76646 
1 -13.8441 17.3486 
2 -11.8542 3.57523 
2 5.37161 -5.83804 
3 5.57734 -9.17252 
3 -2.31775 -8.84698 
1 -1.35594 -9.15115 
2 -3.27668 -8.82466 
3 18.9602 18.3108 
2 -12.9484 7.24189 
3 10.0277 1.84694 
2 -5.84496 -0.564494 
2 14.3484 2.00672 
3 -8.34025 0.847703 
2 -8.84243 13.1714 
2 -17.5102 -12.448 
3 14.9519 6.71351 
3 -6.6836 -13.2241 
3 4.54574 27.3369 
2 -4.62583 9.65615 
1 -10.7398 -13.5242 
3 -0.841848 -8.32818 
2 6.97204 8.34298 
3 -6.02721 14.8975 
1 1.94074 -0.881298 
3 19.9147 13.0547 
1 -4.03628 -8.34504 
2 13.3427 -6.88931 
1 -4.5821 7.70212 
2 6.69777 9.78767 
3 -9.7627 -4.77171 
2 -0.13171 -7.80847 
1 -10.0202 4.45221 
1 -15.7493 -2.57724 
1 -13.6866 3.9065 
1 9.18976 -3.13353 
3 -17.8639 -10.7853 
3 9.39443 -4.88824 
1 9.78057 14.83 
3 -9.01638 4.47399 
3 2.7013 -3.34877 
1 -15.6915 16.8267 
1 10.9751 -0.155746 
1 -2.13879 9.11766 
1 -12.2764 -10.5047 
2 -19.7325 -17.9843 
2 10.2145 11.0454 
3 14.2219 -9.32526 
3 -20.1734 -8.63126 
3 18.4932 10.5861 
2 -4.72183 -8.93502 
2 8.58249 -1.03465 
1 -0.420481 -9.76336 
1 20.1398 -6.16046 
1 13.1894 5.76583 
1 12.2598 -20.6457 
2 -11.8698 6.75479 
1 4.86758 5.98602 
1 -2.52732 4.28317 
2 14.6102 10.5273 
1 -12.1098 -13.5492 
1 3.2274 -8.75074 
1 19.0561 0.799315 
1 3.07473 0.905898 
1 -0.885528 -7.328 
3 8.62637 2.73502 
1 -1.26692 10.6062 
3 0.715872 4.95236 
2 -1.00138 -3.88936 
1 -4.36315 8.78059 
1 5.84134 -8.17122 
1 -3.70627 11.3847 
1 1.8665 -11.433 
3 6.72981 -3.78596 
2 -0.785932 2.17834 
3 8.00798 -1.68783 
1 -1.75965 -4.41922 
2 -4.24001 -17.9446 
3 -14.9505 -1.99002 
1 1.817 1.34529 
3 15.8057 -11.6292 
3 10.1836 3.56042 
1 -10.4584 11.9683 
1 -19.1066 -4.93488 
1 8.91711 15.7587 
3 10.5549 11.8834 
1 -4.97991 -11.8711 
2 0.0605517 16.2807 
2 9.72784 6.14687 
1 -5.94012 -12.5286 
2 7.22527 14.7107 
3 11.1555 11.013 
2 -21.1243 16.1093 
1 -1.41658 2.83831 
2 -12.2083 17.2501 
1 -18.4264 -8.40048 
3 -3.15955 -0.274221 
1 -5.40736 -10.8729 
3 -1.6546 -1.63252 
3 7.6912 -5.02382 
2 -4.87993 -1.22558 
1 10.9861 14.4175 
2 1.05112 1.8349 
1 -17.3391 -13.3282 
1 2.57333 18.793 
3 -8.80984 -9.33518 
1 0.385587 -7.07964 
2 -1.35788 -2.52658 
2 12.8342 10.656 
1 -2.28693 18.3072 
3 14.2456 -2.85403 
1 -0.28576 2.90622 
3 -0.498143 -0.298541 
3 10.1664 -3.23709 
2 8.90602 14.8806 
1 5.23374 1.32445 
1 10.6467 -10.832 
2 -3.61114 -7.56072 
1 -20.8505 -1.54356 
3 6.1545 1.75235 
1 -4.47434 15.8034 
3 -1.62995 1.83378 
1 -5.2068 10.3259 
1 -3.67478 4.46175 
1 0.418754 -4.88222 
2 -1.61936 8.39493 
1 -11.5597 16.5794 
3 -16.6121 -8.56422 
2 -9.5185 5.19749 
2 -2.1169 5.08615 
1 10.5681 -8.90807 
1 9.30619 -15.4553 
2 -10.9903 -11.8701 
1 4.73372 -7.67843 
1 7.9438 -12.2523 
2 -2.44553 6.87599 
1 -4.32944 1.31599 
3 18.4775 9.42824 
1 12.8929 1.52682 
1 0.456357 -0.0992903 
3 -13.7473 -3.22329 
2 1.84971 9.28779 
1 23.1447 -10.2096 
1 19.293 8.85362 
2 5.32592 -14.3383 
1 -11.4357 5.99756 
3 0.788575 -16.0669 
1 -10.4173 15.3664 
2 -5.54992 -14.5558 
3 -22.9931 15.8361 
1 -9.5977 19.612 
3 -2.47523 -5.1734 
3 0.971209 -0.917069 
3 -6.4052 -10.8943 
2 -9.18954 1.10739 
1 1.69352 -12.5314 
3 14.295 -5.78795 
2 10.2891 -0.727075 
1 -7.76759 15.3529 
1 -7.051 -2.61363 
2 9.21048 -4.01748 
3 -2.9378 -13.8969 
1 -1.72209 -17.4134 
1 16.5096 1.41461 
3 -0.558356 -5.69281 
1 -2.22102 -6.3065 
3 -12.7158 3.73612 
3 -6.24636 -16.1073 
1 8.48328 10.5586 
1 10.8721 16.0192 
1 -3.75612 9.67231 
1 -8.73695 -8.35772 
1 -6.6399 -9.10823 
1 0.113608 1.86458 
2 7.73269 0.433424 
1 6.05159 -10.0979 
3 -17.8937 -17.5478 
3 9.92838 -1.53698 
1 9.21663 3.51198 
2 15.0415 3.26616 
3 1.09174 -2.85453 
1 8.10659 3.57976 
3 12.3474 -11.32 
1 12.0013 9.17905 
3 -4.29609 14.0716 
3 7.98743 -10.4908 
2 16.059 11.0363 
1 1.67091 -8.19622 
1 4.17818 0.909923 
2 3.31248 -13.6249 
3 -18.8554 6.19539 
1 10.1104 -7.88834 
3 -13.8401 -12.5671 
1 -8.20753 -10.9025 
2 -1.55069 -11.0536 
1 -6.50876 1.04343 
2 -7.87852 -8.10586 
1 -1.82281 14.3573 
2 1.36289 3.312 
1 3.47245 -18.0148 
2 15.3037 16.1925 
3 -14.7058 -8.88414 
1 -2.63923 12.0878 
1 11.1067 -4.73178 
3 11.6557 -8.86685 
1 7.4238 -7.62893 
1 -3.31371 1.74714 
1 5.06481 12.601 
1 18.3084 -11.9503 
1 11.7991 1.64417 
2 -11.3365 -9.21119 
2 7.05164 -5.62536 
3 -7.42303 3.45772 
1 8.95742 -10.7958 
1 3.69936 -14.4123 
2 13.2989 -10.3073 
2 1.02511 -8.83423 
2 -7.01157 -15.6565 
2 -13.8522 12.9553 
1 4.38173 1.99062 
2 12.0547 -8.07718 
1 -0.0332346 5.52921 
1 -2.84219 -4.18343 
3 6.20054 2.812 
2 5.01404 -8.508 
1 -13.0586 -14.1528 
1 -18.0537 -11.7548 
3 -11.7181 10.7142 
1 3.42342 12.8065 
1 0.869913 7.01409 
3 6.37585 8.98118 
3 4.99986 -22.3588 
3 8.78479 -9.86328 
1 -11.9423 -7.51332 
3 -7.78244 -11.8315 
3 -14.1286 -5.82064 
3 -2.23441 -2.5368 
2 2.47004 -12.0936 
1 -7.95601 9.10416 
1 20.1156 -3.43975 
1 -5.81966 -6.47702 
1 -11.8768 -11.9208 
3 -9.25904 -11.0391 
3 12.9996 18.9561 
1 9.99708 -13.8439 
3 -1.57432 -12.6288 
1 5.16311 -10.8126 
3 6.45458 -13.1136 
3 -12.9716 1.22837 
2 17.3964 5.44323 
1 14.5618 20.0982 
1 -0.245355 13.1924 
1 0.883092 15.8714 
2 12.3362 -9.45428 
1 4.15497 -3.85181 
2 -13.3145 3.09388 
1 4.34965 13.4351 
1 14.8441 12.836 
2 -10.5956 -10.4832 
1 -18.9166 -3.83766 
1 -12.3468 15.7791 
1 0.533001 3.61754 
1 3.38437 -1.73273 
2 -12.0127 -6.64506 
3 1.96403 8.37881 
2 -1.16172 -13.4186 
2 -9.31337 -7.65741 
3 -9.7227 -8.45137 
1 5.81558 9.9734 
1 -1.44866 4.49154 
1 1.83764 7.42779 
1 -8.25028 -3.88288 
2 6.86548 -14.7324 
2 9.33019 16.5465 
2 -5.40491 12.0121 
3 -14.5326 6.98396 
1 -0.843255 17.852 
1 7.83541 12.1663 
3 -9.67824 13.4436 
1 6.51972 -9.07229 
2 10.9186 1.81446 
1 6.34477 14.8866 
1 0.00798641 -1.14222 
1 -6.27035 -7.48661 
3 -13.1224 2.24039 
1 2.73424 19.9403 
3 16.821 -5.28942 
2 14.7457 -13.6793 
1 -8.80628 -5.02267 
2 11.5395 -6.38001 
1 -1.78872 7.52439 
2 3.05425 5.35795 
1 10.3665 7.04738 
1 7.57174 -15.3074 
3 13.708 10.5202 
3 8.81692 6.15125 
3 -11.362 15.6014 
1 -9.08129 9.58013 
1 -14.6952 1.60768 
3 -15.2913 15.9346 
1 -16.4274 -4.37927 
1 5.81442 -16.1398 
1 -14.2423 -1.27907 
2 -5.13188 13.7348 
3 -3.52384 15.4966 
3 3.42568 13.8194 
1 -5.23178 -8.16899 
1 0.882749 -3.81754 
1 -15.1671 6.2389 
3 -5.05889 -2.12725 
1 6.60024 4.50734 
1 -15.406 -11.2344 
3 -14.9881 2.59981 
2 -12.2165 -2.74594 
1 -8.89184 14.0793 
1 -3.99625 0.257272 
1 -14.4587 -4.8109 
1 -10.911 -0.319049 
2 -8.85252 -10.2432 
3 4.33384 -10.2411 
3 -0.141416 0.664306 
3 -7.89369 -18.5593 
2 -8.16805 -1.89778 
1 -19.7111 -12.827 
2 -17.7919 -2.66677 
3 3.04845 -6.81979 
2 -10.8184 1.5 
1 -0.193526 4.4048 
1 6.17767 0.78266 
1 2.23288 5.82162 
1 11.4927 -9.81779 
2 -10.4224 7.73465 
1 -12.1264 7.58598 
3 -3.11839 -12.0688 
3 1.24006 11.7706 
1 10.4428 -12.0212 
2 -8.34408 3.37319 
3 -2.67501 3.32351 
1 -7.66416 -21.1854 
2 16.9192 -6.14519 
2 -5.53424 3.76662 
1 1.47762 -14.134 
1 8.44219 16.7656 
1 -0.996586 9.03875 
1 -15.9276 15.18 
1 -16.7496 -0.185138 
1 15.1586 2.36402 
2 19.1478 -11.6797 
1 -3.84275 18.6881 
1 0.787975 0.975827 
3 15.558 -1.9112 
1 14.2376 11.3357 
1 10.3784 12.8715 
2 -13.816 16.4775 
2 8.71148 -12.7183 
1 15.8776 6.99467 
1 -3.55604 13.413 
2 10.9474 13.5361 
1 -5.46229 -19.9894 
2 -9.07668 -4.18399 
1 -10.9785 10.0542 
1 7.63119 4.96809 
1 3.0269 -22.8506 
3 5.10267 -4.02443 
1 11.8211 -19.2415 
1 1.17159 -10.5684 
1 3.59355 4.62596 
3 5.93114 -6.512 
3 13.5017 2.27831 
1 -20.355 18.0827 
1 -5.03403 2.19618 
1 -0.56229 20.1163 
2 -0.770701 5.05389 
1 9.03869 14.0158 
1 11.0759 5.13807 
1 2.74068 3.03577 
2 -2.96164 -11.2032 
1 6.90994 -6.50507 
1 -12.8589 0.231094 
1 16.8064 11.5283 
1 -16.8317 16.6894 
2 -4.83645 0.549328 
3 5.26959 0.336044 
1 0.227632 8.15378 
3 14.548 8.76246 
1 10.7043 9.15585 
2 2.71823 -18.5368 
2 -4.11163 19.5386 
1 -3.51451 -16.4054 
3 19.1344 -8.42723 
1 10.5997 10.23 
2 10.185 -6.42463 
1 15.9169 3.2118 
3 0.725995 -7.99994 
2 -5.09061 -3.029 
1 -10.4598 2.3078 
1 -13.4187 12.1194 
3 1.05949 -13.2612 
3 12.1697 11.2773 
1 -6.11267 -5.41893 
1 13.2806 -2.95259 
2 7.46584 -2.38555 
2 -1.51917 9.76167 
1 1.71584 2.47539 
2 -16.1743 16.0654 
2 0.273409 6.36521 
2 10.5631 -17.6944 
1 -5.72474 4.63252 
1 -6.83422 2.5837 
3 -19.0339 -12.0315 
1 12.8792 -4.23542 
3 -5.29877 16.3555 
3 3.47326 16.8082 
1 2.84563 7.80283 
1 -18.4999 -16.7317 
1 17.5132 12.4002 
2 -12.4162 -5.34683 
3 19.9671 8.14744 
1 5.13541 7.08373 
1 -1.83953 0.805141 
2 6.63489 -16.5043 
1 -5.08462 14.6233 
1 -21.399 19.6466 
2 -10.7045 -16.6679 
1 6.596 -2.63788 
3 -16.7701 2.28246 
3 -8.31607 -20.4409 
2 5.25349 13.4614 
2 10.8746 -3.84819 
3 -21.4454 2.55798 
3 -4.84316 -6.53289 
1 7.02273 3.3428 
1 19.0187 -9.38833 
1 -9.77811 -16.6625 
2 6.03539 7.13327 
3 -17.9236 -3.56485 
2 -2.59514 -3.33329 
3 -19.6008 15.8105 
3 -10.1268 9.52054 
1 -2.19765 -11.7263 
1 4.30997 11.2005 
3 16.0516 9.50662 
2 -20.7032 17.2721 
1 22.1437 18.2658 
3 9.78508 21.5868 
3 6.21056 -14.1127 
1 -10.0087 6.96403 
3 -5.89419 5.60738 
3 -11.1749 12.6245 
3 -12.5189 13.973 
3 13.8261 1.27027 
1 0.835017 14.7385 
3 11.804 -7.23776 
3 -9.86328 -1.74813 
2 -1.84749 -7.12585 
1 16.8001 7.60063 
3 18.4776 12.282 
3 -5.38909 -15.5154 
1 -17.4766 -9.11571 
2 13.1195 4.89375 
1 -4.15886 6.72281 
1 14.2161 2.93315 
1 17.2628 -8.62482 
1 -8.17198 -0.0841806 
1 5.41721 -0.722625 
1 5.38813 3.36412 
3 4.13205 -8.45194 
3 7.64209 11.1872 
2 -1.02476 0.421133 
2 14.861 11.9745 
1 2.01162 -5.43416 
1 7.14926 -17.2424 
1 -12.5547 9.24469 
3 -4.24355 10.493 
1 7.13238 -13.847 
1 -6.46497 3.80979 
1 -5.97642 6.58203 
1 -21.1284 -3.83055 
1 2.02572 -2.67829 
1 -3.28542 19.8793 
3 -12.2472 5.42533 
1 -7.71926 7.94574 
1 -15.5445 -12.4629 
3 4.60247 18.0375 
1 -6.94451 8.72776 
1 7.55046 -8.72727 
1 -3.49025 -10.4862 
3 -1.04398 -19.1257 
2 13.4275 18.1415 
3 -0.60346 9.93519 
3 -9.69966 -21.4981 
1 -4.15377 -1.73928 
1 4.45081 -15.9526 
3 -0.905455 3.68436 
1 -0.621803 -3.06149 
2 11.2405 -12.4198 
2 -7.19007 4.32786 
1 2.74243 1.94483 
2 7.34738 -12.9577 
2 -2.53684 -1.73045 
3 -4.11772 -0.736263 
1 1.37853 4.2864 
3 -8.74215 8.57342 
1 14.2917 9.71643 
1 -12.3283 2.80634 
3 12.14 8.14615 
1 3.9191 -12.9993 
2 -13.4153 -1.56202 
3 -1.51461 -0.340902 
1 11.1841 -8.00784 
3 12.8386 -2.08689 
1 -15.9587 2.75798 
3 15.3541 13.6572 
1 0.399845 -11.3268 
1 -23.5087 11.4527 
3 -11.2708 8.08139 
2 -3.78015 8.07966 
1 2.24919 -4.23142 
2 12.0882 7.25993 
2 -2.87852 9.60942 
3 -14.3588 -11.0081 
1 -11.0783 7.11942 
3 -12.9586 -15.1527 
2 13.248 6.65975 
3 4.5873 3.96615 
3 6.66542 -15.622 
2 4.48569 -4.67597 
3 4.50616 15.1305 
3 -7.14227 9.67499 
1 -3.21136 -2.37142 
1 13.1459 11.504 
1 -10.0209 -18.5653 
1 -1.09448 -11.8063 
1 -6.01799 13.9005 
3 13.7417 14.1974 
2 -5.87311 21.2616 
1 12.16 20.5208 
3 -8.79283 16.7271 
2 -3.25864 2.65002 
2 -5.08131 6.94391 
2 15.0733 -6.23858 
2 -0.362048 -6.57721 
2 -0.945462 -1.06477 
1 -2.87621 -8.04046 
2 -5.15367 8.37767 
3 -10.9794 0.63631 
2 -5.38423 -7.27196 
3 -18.8329 0.269617 
3 -13.3883 -0.665469 
1 -17.591 -0.965272 
3 -1.94855 11.2768 
2 3.7105 -9.50915 
1 14.7363 14.3999 
1 -5.40666 9.25069 
3 -10.7259 -2.34275 
2 1.10643 -11.8564 
3 3.97438 5.53138 
1 -0.449054 -13.9809 
2 -2.45567 1.46632 
1 -9.49779 7.92796 
2 11.4599 11.8483 
3 -16.1383 6.56801 
3 11.5608 -14.9774 
1 -6.72926 5.10703 
1 11.1551 3.52391 
2 2.97173 3.98057 
2 1.61324 5.15891 
3 15.8034 -10.0845 
1 -5.73923 -1.44779 
3 10.1159 13.8823 
3 5.00104 -24.8275 
1 6.84646 -12.2154 
3 11.9851 -14.0491 
3 6.01216 15.7853 
3 -4.50583 -7.48754 
3 10.5379 -9.88803 
1 22.1796 -8.58194 
1 7.35741 9.15526 
3 6.17959 -5.49765 
3 13.7637 8.12304 
1 -6.94454 14.5871 
1 -16.5374 13.519 
3 9.486 0.99399 
1 6.91565 13.8657 
2 19.3282 -6.56002 
3 -7.37545 0.496392 
2 -8.9197 -0.59504 
2 11.5819 5.86745 
1 17.4712 -6.83517 
2 -16.3342 -15.4588 
1 -11.3882 -3.02873 
1 2.92325 -15.2696 
1 -4.99095 -0.334829 
1 -5.06358 -5.55607 
3 10.5238 8.22178 
3 16.6621 3.84007 
2 -2.45648 -12.6536 
1 -11.2921 -11.0308 
1 -8.12387 -6.51593 
1 -10.068 1.03457 
1 -12.5371 11.2711 
2 -8.71739 -13.4138 
3 -0.960622 14.8643 
1 1.06002 5.88995 
2 5.43299 15.1122 
3 -8.86595 2.66487 
1 -2.28209 10.2707 
2 -0.228592 -11.9434 
1 -10.3465 3.41158 
3 1.38203 -4.66203 
3 5.58328 4.34177 
1 12.4462 -6.52611 
2 9.66494 -8.66239 
3 3.5609 2.51555 
3 -9.57781 1.90492 
3 -4.23406 -2.72249 
1 9.57667 -5.80713 
1 1.10371 8.8066 
3 16.439 -6.87199 
3 10.0163 0.115709 
1 7.75117 7.89287 
3 -8.9897 10.6229 
3 -15.079 -0.799826 
2 17.1588 18.6778 
1 -0.114481 15.396 
1 13.6294 13.18 
2 8.13725 9.69512 
1 -13.7295 -7.45542 
1 5.76877 -12.3794 
1 -8.76313 11.5961 
2 -13.7975 1.6777 
1 5.93025 -15.011 
1 -2.94911 0.702539 
1 -20.8102 -2.68081 
2 -18.2217 -7.53524 
3 -1.74846 17.5205 
1 14.0048 15.1627 
3 -8.11601 -1.01778 
1 -8.15935 -14.0885 
1 -10.4933 17.1051 
1 -7.90351 2.59721 
2 -12.5368 -11.3463 
1 -16.5375 -14.5813 
1 6.99424 2.24412 
3 -9.87153 17.9341 
2 1.53491 15.2801 
1 -6.31388 -22.6534 
3 15.3693 -14.3128 
3 -9.04661 6.97461 
3 -15.8681 -7.70393 
1 -14.6956 13.2599 
2 12.5457 -3.42581 
2 -16.2175 0.529991 
2 2.77049 -4.93949 
1 -2.06083 -13.4738 
3 9.32359 5.3015 
3 -6.76332 -21.5417 
1 -5.42391 1.21159 
3 -1.31116 22.6999 
2 21.281 13.9374 
2 -8.8571 -5.93827 
1 -15.4148 14.0806 
3 -6.69711 7.77634 
1 -7.4104 -7.33855 
1 -14.866 -14.3371 
2 -10.5361 -3.22832 
1 14.0181 5.01932 
2 2.88348 -2.46848 
2 -12.3458 1.85656 
1 1.71851 -9.43454 
3 -4.13509 -5.77355 
1 7.21666 1.1506 
2 -9.72605 2.79139 
1 17.6334 8.89807 
2 -6.11605 -8.36337 
ITEM: TIMESTEP
1
ITEM: NUMBER OF ATOMS
1290
ITEM: BOX BOUNDS pp pp pp
-1.6448100000000000e+01 1.6448100000000000e+01
-1.6448100000000000e+01 1.6448100000000000e+01
-1.0000000000000001e-01 1.0000000000000001e-01
ITEM: ATOMS type xu yu 
1 -7.16071 -5.22502 
3 -11.6615 -0.971324 
2 7.53331 13.2192 
1 -4.92323 -12.9541 
1 16.6404 -13.5022 
1 0.878333 -15.0761 
1 -18.6386 -6.75736 
2 3.82172 -15.287 
1 15.4778 10.2696 
3 4.84778 -12.7721 
1 5.80802 5.31632 
2 0.354621 11.6269 
3 -3.46743 -3.37608 
3 -20.1904 14.157 
1 -0.615293 6.41803 
3 4.55038 -13.8155 
3 -16.3253 12.5468 
2 -15.4036 7.06495 
1 1.72912 -15.8536 
1 8.70757 -8.88096 
1 8.9277 7.91147 
2 16.4271 4.70522 
3 -2.63465 -16.8677 
1 -2.89987 -9.60908 
1 9.51126 -6.99099 
1 -7.76454 -8.98712 
2 -14.7089 0.656552 
1 15.1026 -5.31324 
2 -14.4214 8.51539 
3 -20.244 13.1396 
3 -21.4895 0.754061 
1 20.9064 13.1343 
2 2.57227 -16.132 
1 -4.52925 16.9184 
2 -6.49162 -1.90996 
1 -0.717629 -1.92467 
1 -2.97779 5.29627 
1 -1.91421 13.2095 
1 0.752052 13.6233 
2 9.65895 -2.40152 
2 12.3944 19.6435 
2 -10.1512 0.145602 
3 12.1174 3.35664 
1 -7.3415 -1.57729 
1 0.131376 9.30129 
1 -18.0878 1.21095 
1 -9.74617 -5.75938 
3 2.9659 -5.78844 
2 -11.8521 9.82435 
1 5.84489 -3.43533 
3 18.2905 4.25452 
3 -0.097288 -3.95838 
1 10.5696 -15.0337 
1 15.8078 14.5307 
2 11.379 -2.12877 
1 -3.44809 14.5254 
1 -8.9568 17.6885 
2 -10.0435 -14.0827 
1 7.20456 -9.90809 
1 -13.6307 6.68221 
1 -1.69691 -3.33698 
1 3.66351 -2.88479 
3 9.11247 -7.97184 
1 -17.4519 -7.06731 
2 15.7371 12.8474 
1 -18.8673 7.16364 
1 -6.02912 -9.98006 
3 -8.44578 -7.42556 
2 6.21579 3.71466 
2 14.9394 -9.87625 
2 13.4283 -0.39796 
3 -3.233 6.38398 
1 4.40409 -1.27377 
1 -21.0108 -5.55447 
2 13.7154 -2.15278 
2 8.41825 5.38128 
1 -2.41312 2.38031 
1 21.4665 9.05018 
3 11.4468 15.2774 
1 16.4101 -10.8836 
3 -6.05085 1.96958 
3 9.07451 -13.5246 
1 -8.18291 -2.76734 
3 2.142 3.75004 
1 8.98289 -1.82412 
1 -12.2298 -9.35162 
1 8.97879 -11.8777 
1 9.65555 8.73507 
2 13.6141 -8.61309 
2 14.9003 4.81365 
2 -7.32152 -11.0456 
3 2.63648 10.9248 
1 9.83291 4.46187 
1 -16.3062 -9.50889 
3 -4.82926 3.16397 
3 17.9329 -17.9575 
1 5.97206 -1.71579 
3 -4.85777 11.2783 
2 2.3233 -8.80199 
1 -2.34685 -0.851391 
2 14.4169 13.5893 
1 -13.3171 -10.9253 
3 -2.59053 14.987 
1 5.03326 14.3217 
1 -1.82364 -16.3264 
1 13.3743 -5.99884 
1 -8.08031 4.20595 
1 -16.9411 15.599 
3 6.8519 7.48742 
1 5.50115 -13.4695 
1 -5.91363 -2.62528 
3 -12.5441 -1.47981 
1 -6.5907 -0.0588709 
3 -15.5387 -15.0889 
2 -7.36491 -0.511962 
1 -11.9597 1.03099 
1 3.9382 15.9343 
3 -7.03376 13.6371 
1 -23.9969 -14.4523 
1 -9.44056 12.4756 
3 5.00823 -11.7586 
2 -13.8916 -10.2647 
1 -5.80538 2.93925 
1 3.37056 -10.3399 
2 11.3626 8.56307 
1 14.5659 -1.8771 
1 -4.45903 -3.6848 
1 12.0278 10.307 
2 18.482 -3.85949 
3 13.8834 19.4122 
1 10.5237 -2.31727 
2 -0.95071 7.23396 
1 4.36853 8.96302 
1 -13.0097 -2.3637 
3 17.1794 -10.2983 
1 -14.6266 5.254 
1 -4.95872 -9.81452 
1 -0.834729 1.30375 
3 -12.6711 -4.48798 
2 4.1533 14.3136 
1 -7.97319 13.3606 
3 -4.49742 13.1056 
3 -10.9714 -18.35 
2 2.25491 -6.30321 
1 4.57401 -9.30008 
1 -0.598536 -10.8565 
3 15.3696 -8.09454 
3 -0.169623 -15.7393 
1 -3.95985 -9.42431 
3 13.5766 4.10411 
2 -2.04257 -9.70674 
3 -15.4958 1.05609 
1 16.5387 8.64433 
1 19.2369 13.8347 
2 5.16493 -9.95031 
1 -5.75454 -13.638 
2 -7.51013 -3.35091 
2 3.59565 1.61887 
3 -4.82643 18.9624 
3 10.9425 -14.0945 
1 6.05492 8.03993 
1 15.6306 4.24564 
1 -16.8998 -2.79349 
1 7.36705 -11.2631 
1 -4.68965 18.0108 
2 -16.2388 14.3452 
2 -17.0133 -3.66533 
3 -12.6327 10.2424 
1 12.2283 5.2286 
1 -14.7029 -2.9927 
2 -7.30276 -13.8862 
1 -9.41613 6.06947 
1 12.3333 6.4084 
2 2.55833 12.6026 
3 -13.0634 -9.92748 
3 1.99376 -14.9321 
1 4.81622 -2.91888 
1 -6.29632 -20.6992 
1 4.10401 7.6675 
1 -12.0883 -14.714 
1 -15.5816 4.57749 
2 -14.0684 11.4655 
3 -5.7104 0.321229 
1 13.4031 -1.31413 
1 12.0598 0.039251 
1 -1.40693 5.63589 
2 -1.82146 3.66993 
1 -9.24155 3.54895 
3 -5.61493 -9.0804 
2 -5.4215 -4.71399 
2 -13.0713 -9.0283 
2 -2.79228 -19.9243 
3 -4.10624 -12.4414 