ITEM: TIMESTEP
0
ITEM: NUMBER OF ATOMS
1290
ITEM: BOX BOUNDS pp pp pp
-1.6448100000000000e+01 1.6448100000000000e+01
-1.6448100000000000e+01 1.6448100000000000e+01
-1.0000000000000001e-01 1.0000000000000001e-01
ITEM: ATOMS type xu yu 
1 -6.33766 -4.73342 
2 -10.7055 -1.35036 
2 7.94878 13.7426 
3 -4.87641 -13.1897 
1 17.0819 -12.6768 
1 0.113081 -14.6344 
1 -18.7813 -6.62873 
2 4.65415 -16.41 
1 15.242 9.95141 
3 5.96002 -14.0853 
3 4.68313 6.32934 
3 -1.20008 11.8023 
2 -3.49362 -2.94942 
3 -19.4201 15.6143 
1 0.373585 6.422 
1 4.5702 -14.9301 
3 -16.5307 12.3856 
2 -16.2178 6.52122 
1 0.902784 -15.3892 
3 8.95959 -8.70148 
1 7.82237 7.42019 
1 15.5674 4.34806 
1 -3.07112 -17.1317 
1 -2.4886 -9.52747 
2 10.4857 -7.76651 
2 -5.88834 -9.95678 
3 -14.8698 -0.109479 
1 16.1722 -6.44029 
2 -15.6631 7.89165 
3 -20.0783 14.8157 
1 -21.7907 1.06822 
3 20.0359 12.3072 
2 3.19257 -16.2072 
1 -4.68796 16.2892 
1 -5.82299 -1.95403 
3 0.134095 -2.89237 
1 -2.68121 5.35317 
1 -2.17492 13.6406 
1 0.781706 13.4049 
2 9.7533 -1.88018 
2 12.1509 18.1102 
3 -9.62929 -0.030454 
3 11.3499 3.52086 
1 -7.46526 -2.54311 
2 -0.26975 10.2567 
1 -18.5908 1.28252 
1 -8.34598 -6.19754 
1 3.27319 -5.86447 
2 -11.2406 11.3881 
1 6.00005 -2.97925 
1 18.716 3.48596 
1 0.0553313 -5.96433 
1 9.18699 -14.0606 
3 15.2203 13.7091 
2 11.1376 -1.82492 
1 -4.00013 14.2592 
3 -8.56052 17.9404 
1 -9.9559 -12.5002 
1 7.32843 -7.90796 
2 -13.4212 6.76132 
1 -1.60128 -3.21568 
1 4.70135 -2.04823 
1 9.81478 -8.31686 
3 -16.7689 -7.47496 
2 15.5658 12.7735 
1 -19.4714 6.55047 
2 -4.44454 -9.56243 
1 -7.14653 -8.57071 
3 4.71667 4.21999 
3 15.9279 -9.30055 
2 13.3164 -0.346411 
1 -3.07764 6.33715 
1 5.02034 -0.303016 
3 -21.0204 -5.20113 
3 14.7296 -1.13847 
1 7.08423 5.03787 
1 -3.80802 2.13964 
3 21.5327 9.47557 
1 11.4268 15.8608 
1 16.6594 -11.0676 
1 -6.39752 4.50734 
1 9.61945 -11.9236 
1 -8.38159 -3.07398 
2 1.07424 2.97293 
1 8.82731 -1.67114 
3 -11.5774 -8.30726 
1 8.17026 -10.8547 
3 9.84892 7.71684 
2 14.623 -8.58804 
2 13.8536 4.78075 
3 -6.58795 -10.5255 
2 2.17011 11.2129 
3 8.94044 4.19379 
2 -15.4265 -10.5754 
2 -5.47773 4.02427 
3 17.7431 -17.4771 
2 6.37961 -1.06801 
2 -5.19656 10.1294 
3 4.03951 -8.811 
3 -2.96732 -0.599859 
2 13.7123 13.0314 
3 -14.5779 -10.3122 
1 -2.40517 14.85 
1 4.3181 13.945 
1 -2.26973 -16.2875 
1 13.8787 -5.56705 
3 -9.1998 4.65842 
1 -17.0302 14.5843 
3 7.0928 8.15934 
2 6.19973 -12.4599 
3 -5.87309 -3.01907 
3 -11.6534 -1.73178 
1 -6.99911 0.112172 
2 -14.9686 -15.1098 
3 -7.95087 -0.276209 
2 -12.3241 0.764511 
3 2.2943 16.5896 
1 -6.87673 12.9493 
3 -24.3244 -13.3302 
3 -9.49447 12.1937 
1 5.43753 -12.0306 
1 -14.2561 -9.24538 
3 -6.21819 3.60966 
3 3.33549 -10.3154 
1 10.9522 7.60039 
3 14.1923 -0.369428 
3 -4.06153 -3.55385 
3 11.6686 10.021 
1 19.4777 -2.43144 
2 14.9403 18.8399 
1 10.4753 -2.37268 
1 0.114873 7.47504 
1 5.56826 10.1737 
3 -12.4516 -2.33591 
1 17.5539 -9.65807 
3 -14.7674 5.40597 
2 -3.17711 -10.0083 
2 -0.993145 1.1498 
1 -12.6761 -5.14314 
2 3.49376 14.1843 
1 -7.77572 13.5208 
3 -4.26125 12.4795 
1 -11.0361 -17.9209 
2 2.41112 -5.65116 
1 5.70966 -8.79648 
3 0.326431 -10.7375 
2 15.2958 -7.59781 
2 -0.791354 -14.8583 
1 -3.60581 -9.24182 
3 12.9576 4.48914 
2 -2.09778 -10.329 
3 -15.8343 1.0426 
1 16.4741 8.47137 
3 19.023 12.9188 
2 5.01166 -10.2112 
2 -5.75852 -13.3233 
2 -7.58822 -3.40735 
2 2.06904 1.50792 
1 -5.30837 18.809 
1 10.2258 -14.1939 
1 5.27041 9.11504 
1 15.1111 3.37338 
1 -16.8479 -2.81307 
1 6.93209 -9.83048 
1 -5.12092 17.2678 
2 -16.1873 14.1314 
3 -16.898 -3.75582 
2 -12.0704 9.97248 
3 11.4218 5.33668 
3 -13.4317 -3.33094 
2 -7.14946 -13.899 
2 -10.3338 5.9312 
3 11.5523 6.81102 
3 1.85394 11.9949 
1 -12.4394 -10.7451 
1 1.85415 -14.7067 
2 5.58674 -2.21685 
2 -6.00832 -21.2375 
1 3.5396 8.25863 
2 -11.7437 -14.4645 
3 -13.8283 5.18022 
2 -13.6064 10.5211 
2 -7.22823 -0.820223 
1 13.5985 -1.19742 
1 11.7344 0.14473 
1 -1.94029 4.48155 
2 -3.42551 2.88223 
3 -10.293 3.32301 
3 -4.52184 -8.72095 
2 -4.60481 -4.22075 
2 -12.3701 -8.75152 
2 -2.62877 -21.4438 
2 -3.89305 -12.2872 
1 12.9012 12.753 
2 -9.78024 10.2794 
1 -14.1263 6.12645 
1 7.83895 -3.25482 
3 16.4381 4.91166 
3 13.9548 -9.29974 
1 -6.9074 18.067 
1 8.33135 -4.30574 
3 10.7104 19.5868 
1 9.48552 -9.50265 
1 9.41015 -4.30559 
2 10.4982 3.76323 
1 -11.4906 -0.785125 
1 -12.4961 6.54829 
1 -9.08968 -14.1491 
2 5.5388 0.512544 
1 -5.01207 -3.45709 
2 5.62392 -6.46618 
3 -13.2354 -11.3222 
1 -10.444 11.816 
1 10.6462 -3.37206 
2 4.20152 -5.65061 
2 18.6189 19.1191 
2 -15.1455 -4.06886 
3 11.3573 -0.817844 
2 -4.42116 4.93636 
3 15.6595 7.9377 
2 -1.69231 12.8642 
2 0.791517 -12.9209 
3 -5.70565 14.5803 
2 2.75612 0.376998 
1 -9.32641 -3.52098 
2 8.95742 -12.5123 
1 12.3577 -11.912 
3 -6.01141 12.5338 
1 7.54581 -17.3802 
2 8.70489 3.28753 
2 0.458447 11.4523 
1 3.55258 -19.6808 
3 3.54272 4.63991 
3 -18.3723 17.1925 
1 -5.32861 4.88646 
3 -7.03896 -12.3488 
1 -13.4425 14.2904 
1 2.58195 6.16037 
1 5.4314 6.95159 
1 -6.38804 -11.5142 
3 1.12896 -17.7518 
1 1.65394 7.57831 
1 -8.98881 -1.54814 
1 6.9638 1.47942 
1 -11.582 -9.22838 
3 -7.2146 15.371 
2 -6.5851 -2.43617 
2 21.192 -12.5511 
1 -14.6878 -4.85439 
3 6.39643 6.60221 
3 1.64264 -12.8755 
1 3.95923 -12.191 
1 -13.3736 -13.6109 
3 -9.45512 14.1498 
2 15.5107 5.24791 
1 2.86443 11.8698 
2 -10.2743 -20.1037 
3 2.06713 -17.3681 
1 8.71306 14.2756 
2 1.79757 -15.5969 
3 -17.6396 -12.1615 
1 -3.98572 -10.27 
1 15.098 -0.176619 
3 -10.5096 10.8701 
1 15.5908 11.8398 
1 -3.55729 27.3707 
1 2.86024 9.01237 
2 -2.48014 0.185028 
1 15.0024 7.15391 
1 11.0744 4.4884 
1 -12.505 19.9503 
3 2.00821 -3.02764 
3 8.71691 13.248 
2 3.58939 -21.507 
1 -11.8013 -3.83801 
1 -13.6451 -4.5466 
1 -8.51236 14.4073 
1 -7.41308 5.6669 
2 -17.7395 -4.27503 
1 -10.1636 -4.29357 
1 15.0926 8.77609 
2 -11.5945 -7.44889 
3 -16.4038 -15.7547 
1 10.791 6.08723 
3 10.375 -4.28811 
1 14.0639 -10.3132 
3 -3.10307 -3.75815 
3 14.586 4.13458 
3 0.809201 -6.55292 
2 -6.26388 15.4083 
1 0.575063 10.5611 
3 -6.26369 18.8046 
3 8.03281 2.7598 
2 -12.9543 5.01775 
2 4.25826 -7.36069 
2 17.2136 -11.7856 
1 -15.4193 6.99893 
1 -12.0899 11.724 
1 2.47958 -6.66764 
2 -7.70494 12.6584 
1 7.30763 6.32542 
1 16.5987 -8.34673 
3 17.7643 3.6011 
1 1.31083 -16.456 
1 17.9437 -13.2904 
1 9.47754 -6.27727 
1 -8.22146 -8.57604 
1 -13.2338 11.282 
3 -12.4117 4.35215 
2 15.0944 1.62221 
1 -3.76016 -11.4505 
1 -2.11086 12.0856 
1 3.70623 -4.86125 
1 -1.70013 -6.83777 
1 -19.4144 20.976 
1 -11.5354 -13.608 
3 14.0711 -14.5606 
1 -14.5416 13.8226 
3 1.91484 9.28927 
2 0.634262 4.29275 
2 8.08831 24.5418 
1 9.81306 5.69853 
3 -6.14417 -8.60945 
3 -13.1015 -1.50216 
1 8.9671 7.18873 
1 12.3982 -0.661354 
1 -20.1126 -5.38939 
3 -14.2487 -8.27778 
2 4.74403 -12.6079 
3 -17.7496 19.6804 
2 -4.29544 11.6443 
1 -11.2412 2.00424 
1 9.73223 -15.0847 
1 -0.798187 -8.97506 
2 -9.25479 -10.0621 
2 9.87473 10.5769 
2 -5.11493 6.54897 
2 7.24593 4.15892 
1 8.02631 1.8375 
2 1.05472 -18.6875 
1 4.59761 3.21865 
2 7.91757 -0.104074 
3 4.13965 -0.461159 
3 -5.02925 22.7583 
3 18.0679 -6.79666 
1 4.24016 7.30162 
1 -0.724046 18.9434 
2 1.44764 12.8012 
1 -9.94301 -9.46157 
1 -12.185 5.59838 
1 -9.09053 -4.62834 
3 1.74151 13.592 
3 18.8515 -12.8917 
1 -10.8961 -10.7156 
1 -4.08243 -15.7665 
2 4.07656 -9.70751 
3 6.52658 -6.40076 
3 3.46037 9.79467 
1 14.6764 5.05481 
1 13.1104 7.6304 
1 -1.65118 18.3069 
3 10.5035 8.46624 
1 21.5382 -15.2181 
3 -10.1808 -5.9843 
1 -3.78142 -4.43101 
3 -9.91575 -1.89867 
1 -15.8553 0.0856756 
3 -0.111499 13.7595 
3 1.07078 -2.53995 
1 -9.17645 5.60444 
3 19.5023 15.6417 
3 -11.8778 14.5882 
1 -1.85878 10.9934 
3 -1.52058 -17.723 
3 -8.28533 6.00772 
1 0.148924 -1.99244 
3 1.26709 11.2103 
1 -8.1328 -15.8385 
1 8.98897 2.48075 
1 9.6196 11.6972 
3 15.375 0.830495 
1 13.6395 0.454642 
2 13.3294 9.21752 
3 8.71338 8.09958 
1 -9.36672 -6.54781 
2 -6.08659 -3.88566 
1 -10.8094 -5.25248 
3 7.20698 -16.4747 
3 1.62529 -5.20448 
1 1.96256 -8.2651 
2 -9.54092 -16.8629 
1 3.68444 0.389208 
1 -9.70695 6.60997 
3 -15.9459 -2.6443 
1 1.07473 -0.538347 
2 -16.5248 -1.99162 
3 2.68694 -7.56128 
2 -6.1843 7.68777 
3 -11.7914 -4.84209 
1 2.94477 15.8324 
2 -9.89575 -5.08821 
2 10.2175 9.3727 
3 11.1429 14.7497 
3 3.36972 -3.98302 
1 4.39547 -6.48569 
1 5.68134 5.86839 
3 9.58983 -7.34359 
2 -0.192817 2.61679 
3 14.015 5.83043 
1 -3.34424 7.3288 
1 17.6803 11.2151 
3 -9.50902 -7.49571 
1 -6.20058 17.1924 
1 -7.11701 10.1905 
1 -14.3836 17.1587 
2 -13.2688 9.17268 
2 -7.97867 -23.1183 
2 6.21718 -19.2962 
1 5.14909 -3.97063 
3 12.6335 -4.47023 
3 17.2909 -1.59404 
2 -9.33033 21.0186 
1 -0.0890252 8.54035 
1 -14.3802 14.9242 
1 -0.403639 11.1218 
1 -8.46854 -7.31751 
3 -12.2483 1.63667 
3 -7.73628 16.1928 
3 -5.44472 -4.42979 
2 -11.117 14.1369 
2 5.53149 4.38618 
1 -6.40865 -5.85302 
2 7.14927 10.4818 
1 3.60504 -8.01303 
3 10.4074 23.762 
3 7.27677 -2.46615 
1 13.8062 12.1445 
2 14.9365 -10.5845 
3 10.5036 -12.3445 
1 -5.34482 3.15807 
1 5.56346 -1.33045 
1 8.16882 11.6633 
1 -2.23772 7.20128 
3 14.0458 7.40088 
1 -7.33953 -4.25777 
3 13.2069 -9.97557 
3 -7.59375 -7.74474 
1 -0.942943 -5.35089 
1 -20.7077 3.01676 
1 -10.1866 4.93429 
1 1.90592 0.66184 
3 -5.49244 1.5826 
2 10.8819 -5.08161 
2 7.40643 12.1362 
3 16.6261 -5.50159 
1 23.4715 17.6706 
3 -3.45313 4.83527 
3 -1.87201 8.16062 
1 -16.4032 -1.06958 
2 12.0748 1.02756 
3 8.26909 6.54825 
2 16.7717 9.31899 
3 11.3627 -7.55081 
1 -10.5488 9.94793 
2 9.24509 5.00821 
2 -7.16089 -5.13188 
1 17.287 13.3968 
2 8.79903 -6.86693 
1 11.2478 12.8215 
1 19.8454 -6.19194 
1 16.3395 10.1595 
1 6.88863 12.8374 
3 10.766 2.00338 
3 -4.48361 10.7555 
1 -0.0652581 -8.08876 
2 12.0035 -11.0009 
3 3.10413 -0.398493 
1 1.86067 10.3846 
1 -5.43164 10.9473 
1 6.27507 7.5837 
2 7.01344 -7.16297 
1 8.73958 -7.72927 
2 -15.008 6.23465 
1 -14.6568 4.47704 
1 6.4216 -1.97744 
2 4.74282 -1.11379 
3 8.41342 -2.53309 
1 -9.87621 -0.983652 
3 6.41743 12.0128 
1 5.34189 13.7542 
3 -11.4763 4.8228 
1 -3.88452 -1.33964 
1 9.54895 8.7048 
1 -10.6871 -7.72756 
3 -9.10979 -2.49349 
3 7.16591 -1.43877 
1 12.0909 4.19796 
3 7.79978 -18.2813 
3 -7.67201 -13.1764 
2 1.89111 -1.1737 
3 0.247833 -13.6513 
1 17.4136 9.89931 
1 2.80753 -11.0928 
2 7.7937 -10.0713 
2 4.94618 10.8697 
1 14.4228 -7.69629 
3 1.69865 -6.23006 
1 2.08362 3.22724 
1 14.97 11.0019 
3 8.93314 1.58063 
3 -13.8345 2.58817 
1 1.13966 -11.1395 
3 12.6953 0.272224 
2 8.62239 10.0102 
1 -8.6591 -17.0169 
1 15.8414 -4.81415 
1 -14.5137 -5.88252 
3 1.44668 -10.1694 
3 -0.195321 12.0256 
2 2.37425 7.00096 
3 10.3692 -15.829 
2 -8.60892 0.392678 
2 16.3096 2.50166 
3 12.4821 -2.45156 
2 -1.65589 -5.88759 
1 -2.68027 9.67503 
1 12.658 9.80592 
1 -9.15436 7.61367 
1 4.80437 -17.2525 
2 -12.6102 14.1147 
3 -16.9657 16.2785 
3 8.78549 29.3968 
3 4.62824 0.514034 
3 -1.93628 -11.1941 
1 -19.7812 -6.41552 
3 -3.09579 -18.8566 
1 20.2029 15.0026 
3 -3.13501 -15.86 
3 -1.34967 16.1836 
2 -12.1652 8.16597 
2 -7.34659 11.0514 
1 19.665 -8.75578 
1 6.40297 0.557212 
1 -13.9657 -0.0360298 
1 7.5961 -13.724 
2 -7.59511 6.53315 
3 -2.05252 6.20608 
3 5.12095 -5.81025 
3 -13.8892 9.6996 
1 7.18042 3.17361 
1 1.60485 2.28074 
3 16.018 -14.9092 
3 6.22576 -3.92493 
1 8.33943 0.719792 
2 8.27691 -14.2243 
1 -3.30585 12.0508 
1 5.70345 11.3592 
3 -12.1058 -0.0928039 
2 12.7966 3.66215 
2 2.59754 9.88209 
2 -2.69542 7.89204 
1 6.59336 9.80633 
1 -7.51425 1.70044 
3 -3.55667 9.24863 
1 7.09623 -21.566 
2 11.9556 -17.7875 
2 -11.5949 3.93335 
2 -7.90007 -12.2274 
2 -6.07312 9.02663 
1 20.4509 -16.7625 
1 -11.1062 -11.8575 
1 9.39951 0.628236 
2 -8.84518 6.71783 
3 -17.3479 -5.69721 
1 -17.9504 -14.9052 
2 -1.81007 5.36327 
1 10.4994 -1.25087 
1 2.77014 -1.24869 
3 -5.91409 -6.68435 
1 3.22621 -13.7995 
1 1.59584 6.54824 
2 3.69571 -11.3115 
2 4.38655 8.30079 
1 -8.09912 7.27976 
2 7.32097 -12.8853 
2 17.0375 10.6696 
1 18.1183 7.91256 
3 -10.1714 -11.4853 
2 11.2323 10.8073 
3 -13.1862 5.90177 
1 8.60988 16.189 
3 3.75323 2.88875 
3 12.3201 -12.9048 
1 -12.5122 -7.85326 
1 -7.51682 -10.4347 
3 -15.0497 -3.20174 
2 8.75998 12.3684 
1 6.98405 -0.451172 
1 12.6757 8.63391 
1 4.00284 10.6406 
2 -7.72132 -15.055 
2 -3.5751 -15.0834 
1 -8.59989 2.44278 
1 8.20771 -9.26092 
1 8.88626 -5.23552 
3 21.3023 -2.79171 
1 -2.48952 -5.93387 
3 5.51118 -13.0918 
1 7.05779 -10.9393 
3 -3.35748 -6.42649 
2 -15.5202 -0.727359 
2 6.4836 -9.10781 
2 0.0541068 12.8669 
2 -7.5728 8.02673 
3 13.1359 -16.2935 
2 -8.91148 -8.08782 
1 -13.3738 16.6347 
2 -11.9276 2.49061 
3 5.69803 -4.76236 
3 6.45637 -8.22149 
3 -1.45987 -9.63449 
1 -0.385892 -9.94451 
1 -2.76385 -8.44666 
3 19.528 17.585 
1 -13.7473 7.59057 
2 9.85511 2.38794 
1 -6.94432 -1.66656 
1 13.2966 2.90215 
3 -8.48343 1.38963 
2 -8.65937 13.4394 
1 -18.7312 -13.6464 
1 15.0359 6.04337 
1 -6.59544 -13.1931 
1 4.77625 27.9472 
1 -4.52737 8.49972 
1 -10.2721 -13.5582 
1 1.1953 -9.15509 
1 7.87147 8.69634 
1 -6.63873 14.6002 
1 2.11784 -0.333377 
1 19.9274 13.3009 
3 -2.18409 -7.62101 
3 13.4528 -7.35985 
1 -4.25505 6.77527 
2 7.09143 9.11092 
3 -9.1293 -5.61834 
1 1.5182 -7.27803 
3 -10.7658 4.15726 
1 -14.9362 -2.22348 
1 -13.5099 4.27486 
1 9.43551 -2.70798 
1 -17.2611 -11.2679 
1 10.0286 -5.24628 
3 9.54256 14.6382 
1 -9.08899 3.62105 
3 3.11097 -3.03813 
1 -15.5117 17.092 
1 10.6093 -0.163604 
2 -0.997006 8.58951 
1 -12.608 -9.68313 
2 -18.5447 -17.4742 
3 10.4526 11.2044 
1 14.9006 -9.54376 
3 -19.1767 -8.34626 
1 18.4004 10.3813 
3 -3.70692 -8.159 
3 7.41803 0.631228 
2 0.597489 -9.8607 
1 20.8052 -6.77102 
3 12.3554 6.00385 
3 12.0843 -19.6002 
2 -11.6099 6.55515 
3 3.57809 6.37108 
3 -3.53619 3.79229 
2 14.4133 10.3044 
3 -12.4103 -13.9104 
1 4.23207 -10.624 
1 18.0229 0.797351 
1 2.95778 1.2734 
3 0.983755 -8.20943 
3 8.00354 3.75377 
3 -1.1375 10.3897 
1 -0.829609 4.93304 
3 -0.133084 -4.897 
1 -5.00695 7.45411 
1 6.09744 -7.25867 
2 -3.52599 10.1754 
3 3.03222 -11.9887 
3 7.26326 -4.08421 
2 -2.02145 2.67001 
1 7.99024 -0.964277 
1 -1.96198 -5.00731 
2 -4.77032 -18.1769 
3 -14.0514 -1.76523 
1 -0.138734 -0.382524 
3 16.3223 -11.9472 
3 9.6408 3.27334 
3 -11.3319 12.2665 
2 -19.4713 -4.75937 
3 9.49855 15.6828 
3 10.3978 12.2815 
1 -4.73787 -12.1018 
3 -0.202134 17.3742 
2 7.79531 5.56293 
1 -5.85705 -12.3951 
2 6.86793 14.9172 
1 11.3646 11.6703 
1 -20.3776 15.8436 
1 -2.70236 3.38754 
3 -11.7774 16.8359 
1 -17.3937 -8.43731 
1 -3.33044 0.300934 
3 -4.71341 -11.1251 
2 -0.760203 -3.30234 
1 7.76339 -5.24677 
1 -5.49367 -0.169361 
2 10.3555 14.2564 
2 0.416026 1.31126 
1 -16.8523 -12.9127 
3 2.23316 19.1497 
1 -9.28845 -11.0057 
2 0.62216 -7.44418 
1 -1.18596 -4.22496 
2 12.9487 10.7176 
1 -2.71627 17.8823 
1 14.1224 -3.06078 
1 -1.83293 1.75234 
1 -1.44011 -1.43197 
1 11.5308 -2.59405 
3 8.5526 15.2154 
1 4.33989 2.17993 
1 10.3025 -10.1367 
2 -2.51223 -6.80092 
1 -20.9389 -1.61807 
1 5.42131 2.48256 
1 -4.09727 15.3974 
1 -2.75952 2.29986 
3 -5.15616 9.26926 
1 -4.62064 4.07921 
2 0.850112 -5.62686 
2 -1.44705 6.84282 
2 -10.9198 16.916 
2 -16.0658 -9.22958 
2 -9.87693 4.09889 
2 -2.78495 4.27234 
2 12.1613 -9.25438 
1 8.59704 -15.0398 
3 -10.8303 -12.7836 
3 5.16679 -7.16222 
3 8.72689 -11.6738 
1 -1.08921 5.95435 
1 -6.0518 0.734798 
2 18.2138 9.39438 
1 12.8984 1.37266 
2 -1.0811 -0.626537 
2 -14.2477 -2.86303 
2 1.16088 9.86068 
3 22.8322 -10.3643 
1 18.8032 8.73976 
2 5.45183 -14.8377 
1 -10.7517 6.74237 
2 0.45957 -16.1613 
1 -9.3932 15.1136 
2 -5.77222 -14.8743 
1 -23.3031 16.6315 
3 -9.37173 19.6407 
3 -2.88491 -4.84672 
3 1.16497 -1.56246 
1 -5.65357 -10.8136 
1 -9.41393 0.90682 
1 2.56066 -12.9175 
1 14.8138 -5.07547 
2 9.72371 -0.196623 
2 -8.07245 15.2004 
1 -6.72897 -3.31185 
2 9.72128 -3.47546 
1 -3.42362 -14.1417 
2 -2.20584 -17.1724 
1 15.9909 1.65823 
1 -0.254181 -7.04078 
3 -0.876396 -6.32028 
3 -12.2402 3.32497 
1 -6.66266 -16.6528 
1 9.51792 9.82285 
3 10.4777 16.1336 
3 -3.51344 8.24801 
1 -8.41194 -9.7674 
1 -5.4192 -9.25637 
1 -0.403241 1.76847 
2 7.25719 2.31009 
1 5.84265 -9.84806 
1 -17.6376 -17.3962 
3 9.51829 -1.02043 
1 8.11273 4.75042 
2 14.2262 3.27175 
1 1.99447 -2.04587 
1 6.33287 4.02629 
1 12.8983 -11.0487 
2 12.0115 9.20618 
1 -3.55963 13.0882 
3 7.35278 -8.87752 
2 15.8109 10.8013 
1 3.25635 -9.31456 
3 3.99783 1.26582 
2 4.00632 -14.2121 
2 -18.5305 6.60101 
1 11.0758 -8.38474 
3 -13.1799 -12.3301 
3 -7.43988 -11.3736 
2 -0.503888 -11.0281 
1 -6.70071 2.81022 
1 -6.59505 -9.52767 
3 -1.18737 13.5927 
1 0.312289 3.37219 
3 2.89435 -18.0208 
2 16.1556 15.4166 
1 -14.0705 -7.3094 
3 -3.57682 11.1027 
1 11.3436 -4.35796 
1 12.1245 -8.33054 
1 7.44541 -6.32073 
1 -4.52192 1.3759 
2 5.16929 12.0733 
1 18.8685 -11.95 
1 11.9434 1.90681 
3 -10.7166 -8.73975 
2 6.92071 -5.65729 
1 -8.21083 4.2491 
1 9.31799 -10.8849 
3 3.49931 -14.9285 
2 13.747 -11.1242 
3 2.21135 -9.18416 
3 -7.18119 -15.7864 
1 -14.5642 12.1198 
2 3.42326 2.02597 
2 12.9191 -8.07084 
2 -0.206396 5.74789 
3 -2.11276 -3.99493 
2 3.85104 3.78597 
1 4.72426 -8.13823 
2 -13.2175 -14.4573 
1 -18.321 -11.4114 
3 -12.3798 10.8244 
1 2.3541 12.8732 
3 0.824664 8.07039 
1 6.23703 8.69563 
1 4.45364 -21.258 
3 8.75074 -10.0862 
2 -10.1677 -6.91402 
1 -8.68003 -12.4917 
3 -13.6941 -5.47081 
3 -1.89336 -2.29074 
2 3.4684 -12.8935 
3 -8.66103 9.15988 
3 20.1581 -4.17077 
1 -5.15983 -6.08916 
2 -11.6514 -11.1453 
3 -8.48956 -11.5413 
1 11.4319 17.4592 
1 9.77961 -13.0222 
3 -2.47945 -14.0381 
2 6.26766 -10.6302 
1 8.08344 -12.4548 
2 -13.8536 0.856924 
2 17.4135 4.80654 
3 13.0395 18.1607 
1 -0.850355 12.7216 
1 -0.427342 16.4111 
1 13.0402 -9.02787 
1 4.12677 -3.29206 
3 -13.2062 3.41123 
1 4.62608 12.8937 
1 14.6673 12.7537 
2 -10.8072 -9.85482 
3 -18.6264 -4.16946 
2 -11.79 15.5025 
1 -0.719397 3.30691 
1 3.83361 -1.43492 
1 -11.0154 -6.62904 
2 1.70456 8.43441 
2 -3.06985 -13.3125 
3 -7.55718 -9.43699 
3 -9.0873 -8.99622 
3 6.34433 10.7399 
3 -1.78075 3.5323 
3 1.06755 5.73337 
3 -8.2382 -4.055 
2 6.84981 -14.1497 
2 8.84714 17.033 
3 -5.16895 11.9028 
3 -14.5225 7.01812 
1 -1.16356 17.2294 
1 7.93894 12.8118 
1 -9.47489 13.1287 
2 5.59119 -7.96595 
2 10.2719 0.652165 
1 6.07935 14.561 
2 0.381242 -1.13885 
1 -5.83081 -7.64563 
3 -14.1827 1.65102 
1 4.33111 19.5528 
1 17.07 -4.62789 
1 14.369 -12.4624 
3 -7.37285 -6.02552 
1 11.2227 -5.87289 
3 -0.54301 6.75841 
2 3.19172 5.51956 
2 9.17933 6.32793 
1 7.52685 -14.7756 
3 13.5579 10.1362 
2 6.59171 5.7553 
1 -11.1305 16.0851 
1 -8.90684 10.0716 
1 -15.8757 1.96049 
1 -14.2465 16.1017 
1 -15.8888 -3.55502 
3 5.57788 -16.7131 
2 -13.7943 -0.945547 
2 -4.39068 13.3609 
2 -3.31068 14.8883 
1 2.69101 13.887 
1 -4.65194 -7.80434 
1 1.05342 -3.50756 
1 -15.6827 5.68841 
3 -4.81803 -1.70684 
3 5.13073 5.15741 
1 -14.9599 -11.3066 
1 -14.8742 2.48547 
2 -12.5192 -3.30742 
1 -10.3444 13.8088 
1 -4.45883 0.308701 
1 -14.293 -3.78356 
3 -10.5772 -0.402606 
2 -8.45098 -10.6542 
1 5.46199 -10.9374 
1 -1.05916 0.223114 
3 -7.55885 -18.4552 
2 -8.30202 -2.14587 
2 -19.5876 -13.8454 
2 -17.795 -2.53209 
1 3.48057 -6.96303 
1 -11.4673 0.940471 
3 -0.214096 4.1436 
3 5.91185 1.35416 
2 1.88973 5.66406 
1 12.2135 -10.1626 
2 -10.5706 9.09253 
3 -12.7918 7.446 
1 -3.05593 -12.4773 
1 0.773514 12.2602 
1 11.4474 -12.6306 
2 -8.23615 3.30359 
1 -4.28366 3.09555 
3 -6.80871 -20.9407 
1 17.1903 -6.31153 
2 -6.57448 5.43239 
2 0.962554 -14.5084 
1 7.95101 17.0162 
1 -1.00999 7.64836 
1 -16.0343 14.9725 
3 -16.7888 -0.177516 
1 14.489 2.40606 
1 19.3174 -10.4302 
1 -4.39794 18.1529 
3 -0.269847 0.721851 
1 15.5155 -1.77867 
1 13.8447 11.0271 
1 9.62888 12.7851 
2 -12.6018 17.058 
3 10.4026 -11.097 
3 15.8169 6.70545 
3 -2.64143 12.8207 
3 11.1341 13.7726 
1 -5.11943 -20.0543 
1 -8.09685 -5.08375 
1 -11.4308 10.5747 
3 6.13894 5.00597 
1 2.94146 -22.1807 
3 5.05281 -2.93192 
1 12.0089 -18.6519 
2 1.97144 -10.9304 
1 2.53681 4.98481 
1 6.01518 -5.65478 
2 12.7008 2.25821 
3 -20.8962 16.5999 
2 -5.85942 2.39515 
1 -0.108932 20.1856 
2 -1.14338 4.09503 
3 9.66164 13.7052 
1 9.96177 4.4742 
3 1.23243 1.43961 
2 -2.78868 -11.6409 
3 8.37184 -6.05457 
3 -13.1082 0.429927 
1 16.5878 11.4266 
1 -16.0691 16.0649 
2 -5.19444 0.751011 
1 4.95216 1.37873 
3 0.29107 9.52905 
2 14.6792 7.98906 
1 11.0873 9.27917 
1 1.86825 -18.3777 
2 -4.37637 19.0009 
2 -3.82021 -16.5739 
2 19.4405 -7.8825 
1 10.6356 10.1895 
1 10.575 -6.92494 
3 16.1456 3.39923 
2 2.84634 -8.47531 
2 -5.12811 -2.54317 
1 -10.25 1.67756 
2 -13.6502 12.0391 
1 1.20326 -13.7196 
1 12.0806 10.8575 
2 -5.62164 -5.34873 
1 14.4285 -2.01362 
2 7.93537 -1.85435 
1 -1.67564 9.13491 
1 0.557411 2.20439 
2 -15.1526 16.2895 
2 0.93619 7.10119 
1 10.3578 -17.7231 
3 -4.87299 5.69431 
1 -7.34818 3.69374 
1 -19.6418 -13.0286 
1 13.3433 -3.88729 
1 -5.30597 15.4096 
1 2.72644 17.4456 
3 2.53945 8.01464 
1 -17.3798 -15.7839 
1 17.3388 12.3019 
1 -11.8054 -5.79536 
1 19.8654 8.38949 
1 4.13342 9.1542 
3 -1.82334 0.772303 
1 6.32632 -16.0126 
1 -5.02252 13.9124 
1 -20.3281 17.3739 
1 -10.0225 -16.1587 
2 6.8271 -3.22579 
3 -17.4543 2.44516 
1 -8.52452 -20.3326 
1 5.75169 12.7465 
2 11.5509 -3.49369 
2 -21.4981 2.64288 
1 -4.24375 -6.86029 
3 5.49822 3.50813 
2 19.4498 -9.58883 
3 -10.2634 -17.3138 
1 5.25007 8.06511 
1 -17.7828 -3.39932 
1 -2.58755 -2.92517 
1 -18.7672 16.3571 
1 -9.53478 11.1586 
1 -2.03819 -12.1879 
3 3.73818 12.2646 
3 15.9091 9.21699 
2 -21.7567 16.6648 
3 22.0379 18.6082 
1 11.3321 21.3359 
1 6.39146 -14.9382 
3 -10.8841 7.70283 
1 -5.80317 5.84756 
3 -11.0558 13.214 
1 -11.9509 13.5878 
3 13.6457 2.00918 
1 0.250361 14.6754 
2 11.4686 -6.71926 
2 -10.0884 -2.72321 
1 -1.18249 -7.78999 
1 16.4988 7.402 
3 18.769 11.2634 
3 -5.69024 -16.5842 
3 -16.1262 -10.0678 
2 12.2198 5.02519 
1 -3.94473 5.66989 
1 13.6432 3.88872 
1 17.7321 -8.55293 
3 -7.74396 0.698451 
3 6.01346 -0.300806 
1 2.90857 3.95345 
1 4.84641 -9.36138 
3 8.06917 10.6666 
1 -1.93422 -0.469854 
2 14.6611 11.8992 
1 2.61291 -4.65404 
1 6.46905 -17.1901 
1 -12.2679 9.10883 
1 -4.33561 9.7835 
1 6.59745 -13.3385 
3 -7.33892 4.72798 
1 -6.97682 7.264 
3 -20.4508 -3.45625 
3 3.02841 -2.08874 
1 -3.89352 19.7148 
1 -11.1398 5.69831 
2 -9.26813 8.47868 
3 -14.9218 -12.2618 
3 3.8546 16.0899 
1 -7.7594 8.84726 
3 7.98733 -7.13843 
1 -2.85484 -10.7905 
1 -0.756975 -18.3947 
1 13.6383 17.4309 
1 -0.661992 9.41812 
3 -8.68107 -21.3354 
3 -4.68529 -0.687277 
1 3.93743 -15.7776 
3 -1.12316 2.45366 
1 -0.0662457 -3.92886 
2 11.6709 -13.516 
2 -8.19912 5.13824 
1 0.741546 0.514487 
2 7.75321 -11.6968 
1 -2.52761 -1.46228 
2 -3.87386 -0.433917 
3 1.3435 3.80924 
1 -9.72524 9.32605 
1 14.3138 9.45125 
1 -12.8585 2.45086 
1 12.0617 7.58877 
3 4.99189 -14.0856 
2 -12.3098 -1.09573 
1 -0.854619 -2.4103 
3 12.342 -7.21711 
2 12.8285 -1.59808 
1 -15.8939 2.98865 
1 14.2685 13.7573 
3 1.03178 -12.0874 
1 -23.9124 10.8251 
1 -11.3118 8.54268 
2 -4.19684 7.66729 
3 1.77398 -4.17355 
1 9.9618 6.76589 
3 -2.65707 8.78195 
2 -14.1165 -11.0873 
1 -11.7866 7.40018 
1 -12.4798 -14.9882 
2 12.5798 6.88857 
2 2.05336 4.26259 
2 7.04564 -15.5328 
2 4.25928 -4.18864 
1 3.93248 14.964 
3 -6.85838 9.32016 
3 -3.18578 -2.14547 
1 12.8422 11.6347 
2 -10.2645 -18.2338 
1 -0.938383 -11.7824 
1 -6.08228 13.5969 
1 13.7888 14.6804 
2 -5.43268 21.2715 
1 12.467 18.9453 
3 -9.07418 16.7671 
3 -4.89755 2.34827 
1 -5.90656 6.89188 
2 14.704 -6.01637 
3 0.199876 -9.00164 
3 -0.5319 -1.31025 
3 -1.76467 -8.65648 
1 -5.61331 8.31256 
2 -11.293 0.0785961 
2 -5.08124 -7.01768 
2 -18.3803 0.46446 
1 -13.0016 -0.492408 
2 -17.2491 -0.952054 
3 -2.74541 10.5572 
3 4.66441 -11.4872 
3 14.7406 14.6063 
1 -6.77369 8.33433 
1 -10.8316 -2.26009 
1 2.03112 -11.8918 
1 3.21497 7.25773 
1 -1.17775 -12.8987 
2 -3.61792 1.2192 
1 -10.1478 8.27321 
3 12.1431 12.2579 
1 -16.758 5.8226 
2 10.6297 -14.9875 
3 -6.71762 6.33205 
1 10.5416 2.91263 
2 2.91865 3.06952 
1 1.4329 4.80548 
1 15.7712 -10.2441 
2 -5.52929 -1.08828 
2 10.4939 13.2512 
3 4.60675 -22.9789 
1 6.98319 -12.0936 
1 11.2839 -14.3548 
2 5.67021 15.3109 
1 -3.12645 -7.40281 
3 11.2742 -10.4441 
1 23.0701 -8.40341 
1 7.69686 9.75478 
1 6.67317 -4.81349 
1 13.8883 8.48971 
2 -6.93693 13.8012 
1 -16.7159 13.4156 
1 9.98 1.50999 
1 7.02 13.9211 
2 19.0219 -6.51292 
2 -6.90645 0.962537 
1 -8.86855 -0.485656 
2 10.5476 5.2276 
2 17.5149 -5.41329 
1 -15.9541 -14.7847 
1 -10.7827 -3.33373 
2 2.75282 -14.514 
1 -6.36597 -0.769741 
1 -4.67846 -5.15429 
3 11.6358 8.46835 
1 16.8737 4.11014 
2 -1.58257 -13.6859 
3 -11.663 -10.2364 
1 -6.86801 -6.85936 
1 -10.4404 0.553043 
1 -12.9303 10.0246 
2 -8.51726 -13.3594 
2 -1.64746 14.3067 
1 0.299183 5.09796 
3 5.04315 14.6381 
1 -9.62849 2.63266 
2 -1.88722 10.0626 
1 0.15392 -11.6742 
3 -11.1994 3.0388 
1 0.807807 -4.60799 
1 4.08661 5.5651 
3 12.1409 -6.12227 
1 11.3227 -9.49222 
3 2.55093 2.28045 
2 -9.35941 1.81217 
1 -4.17353 -2.44247 
2 10.3719 -6.04367 
1 1.00822 8.96309 
1 17.103 -7.43637 
1 8.84531 -0.300162 
2 7.03775 7.15933 
3 -8.12458 10.618 
1 -14.6929 -1.10236 
3 17.7375 18.653 
3 -0.455953 15.463 
1 13.1394 13.8305 
3 8.69656 9.18547 
3 -13.0845 -7.14427 
3 6.19744 -11.5046 
1 -7.75096 11.8315 
2 -15.0296 1.6654 
1 5.26989 -15.7766 
1 -2.74242 1.1792 
3 -19.369 -2.20962 
1 -17.7356 -6.75549 
2 -1.98136 17.4444 
2 15.0175 16.4034 
1 -7.95948 -1.28081 
1 -7.97022 -14.1414 
3 -10.397 17.6712 
3 -7.641 2.67825 
1 -12.2163 -11.823 
1 -16.0052 -13.727 
2 6.27159 3.09189 
2 -9.92252 18.4868 
1 0.397804 15.8226 
1 -6.07009 -23.026 
1 15.8328 -13.9977 
2 -10.0496 7.40756 
2 -14.9595 -7.67905 
2 -14.7931 12.9841 
2 13.2006 -2.99405 
2 -16.6465 0.760557 
2 2.55101 -3.73175 
3 -2.19073 -13.0838 
1 8.63713 5.66371 
3 -6.38459 -21.9883 
1 -6.48435 1.70355 
1 -1.21843 22.3067 
2 20.8186 12.7111 
2 -7.69335 -6.84033 
3 -15.3485 14.4026 
3 -8.45341 8.25542 
2 -6.63599 -7.90238 
1 -14.1195 -14.6676 
2 -11.0005 -4.26716 
1 13.0759 5.42094 
2 3.9312 -2.44623 
1 -13.1765 1.37665 
1 2.43064 -10.0657 
2 -4.2802 -5.97034 
3 6.42236 2.27789 
2 -10.5276 2.48337 
1 17.5403 8.76254 
2 -5.31721 -8.38861 
ITEM: TIMESTEP
1
ITEM: NUMBER OF ATOMS
1290
ITEM: BOX BOUNDS pp pp pp
-1.6448100000000000e+01 1.6448100000000000e+01
-1.6448100000000000e+01 1.6448100000000000e+01
-1.0000000000000001e-01 1.0000000000000001e-01
ITEM: ATOMS type xu yu 
1 -6.33711 -4.73505 
2 -10.7028 -1.35604 
2 7.94378 13.7413 
3 -4.87722 -13.1852 
1 17.0869 -12.6773 
1 0.115772 -14.6328 
1 -18.7816 -6.63053 
2 4.65816 -16.4041 
1 15.2332 9.95562 
3 5.96266 -14.0829 
3 4.68658 6.33668 
3 -1.1958 11.8023 
2 -3.49246 -2.95006 
3 -19.4248 15.6106 
1 0.368976 6.41215 
1 4.57848 -14.9293 
3 -16.5215 12.3785 
2 -16.2208 6.52278 
1 0.902289 -15.3966 
3 8.9591 -8.70912 
1 7.82064 7.41961 
1 15.5692 4.34222 
1 -3.0813 -17.1378 
1 -2.48184 -9.52617 
2 10.4836 -7.76145 
2 -5.8887 -9.95819 
3 -14.8655 -0.108915 
1 16.1747 -6.4317 
2 -15.6668 7.88954 
3 -20.0705 14.81 
1 -21.7912 1.06713 
3 20.0445 12.3083 
2 3.18085 -16.2132 
1 -4.68328 16.2913 
1 -5.81581 -1.96127 
3 0.13424 -2.89813 
1 -2.68076 5.36131 
1 -2.17421 13.6474 
1 0.791091 13.4013 
2 9.75798 -1.87883 
2 12.1478 18.1133 
3 -9.6274 -0.0340499 
3 11.3495 3.52026 
1 -7.46636 -2.53512 
2 -0.274679 10.2553 
1 -18.5859 1.28787 
1 -8.34709 -6.20419 
1 3.27334 -5.86172 
2 -11.2435 11.3876 
1 6.00251 -2.97486 
1 18.7208 3.47922 
1 0.0554631 -5.9579 
1 9.17994 -14.0654 
3 15.2176 13.7111 
2 11.1376 -1.82372 
1 -4.00746 14.2661 
3 -8.55526 17.9382 
1 -9.955 -12.5026 
1 7.33014 -7.90528 
2 -13.4219 6.76083 
1 -1.59803 -3.21992 
1 4.70075 -2.04996 
1 9.8146 -8.32026 
3 -16.7657 -7.47928 
2 15.5585 12.7743 
1 -19.4723 6.55449 
2 -4.43926 -9.56846 
1 -7.15116 -8.56745 
3 4.71464 4.21999 
3 15.9243 -9.2996 
2 13.3181 -0.336485 
1 -3.08326 6.33307 
1 5.01961 -0.310936 
3 -21.0125 -5.19884 
3 14.7329 -1.14068 
1 7.08658 5.03467 
1 -3.8059 2.14043 
3 21.5392 9.47855 
1 11.4212 15.8552 
1 16.6553 -11.064 
1 -6.39473 4.50563 
1 9.61229 -11.9163 
1 -8.38109 -3.08026 
2 1.07471 2.97103 
1 8.83586 -1.66458 
3 -11.5776 -8.30277 
1 8.17544 -10.8584 
3 9.83965 7.71678 
2 14.6188 -8.57972 
2 13.8476 4.77571 
3 -6.58761 -10.5248 
2 2.16828 11.2101 
3 8.94294 4.18833 
2 -15.4211 -10.5788 
2 -5.47514 4.01888 
3 17.7445 -17.4732 
2 6.37392 -1.07226 
2 -5.19615 10.1281 
3 4.04322 -8.8132 
3 -2.96655 -0.593627 
2 13.7085 13.0292 
3 -14.5751 -10.3181 
1 -2.403 14.8548 
1 4.32087 13.9326 
1 -2.27574 -16.2853 
1 13.8761 -5.56588 
3 -9.20239 4.65108 
1 -17.026 14.5936 
3 7.09205 8.16085 
2 6.19724 -12.4613 
3 -5.86802 -3.01398 
3 -11.6562 -1.72326 
1 -6.99513 0.109887 
2 -14.9657 -15.1045 
3 -7.94681 -0.277467 
2 -12.3272 0.763848 
3 2.29805 16.5831 
1 -6.86928 12.9436 
3 -24.3289 -13.3345 
3 -9.50087 12.2023 
1 5.43318 -12.0362 
1 -14.2538 -9.24327 
3 -6.21396 3.61812 
3 3.33616 -10.3192 
1 10.9622 7.60249 
3 14.2019 -0.363064 
3 -4.06679 -3.55702 
3 11.6758 10.0133 
1 19.4832 -2.4305 
2 14.938 18.8417 
1 10.4745 -2.37882 
1 0.105967 7.47952 
1 5.57404 10.172 
3 -12.4486 -2.34005 
1 17.5534 -9.65914 
3 -14.7733 5.40973 
2 -3.1714 -10.0144 
2 -0.993022 1.1499 
1 -12.6824 -5.13911 
2 3.49398 14.1837 
1 -7.77143 13.5157 
3 -4.25908 12.4782 
1 -11.0388 -17.9138 
2 2.40767 -5.65132 
1 5.70651 -8.79196 
3 0.32645 -10.7455 
2 15.2953 -7.60152 
2 -0.79001 -14.8574 
1 -3.60213 -9.23412 
3 12.9565 4.4902 
2 -2.10305 -10.3271 
3 -15.8302 1.04985 
1 16.4699 8.46406 
3 19.0279 12.9243 
2 5.01613 -10.209 
2 -5.7577 -13.3188 
2 -7.58708 -3.40756 
2 2.06992 1.50705 
1 -5.30536 18.7988 
1 10.2248 -14.1923 
1 5.27442 9.11523 
1 15.1133 3.37678 
1 -16.8429 -2.82077 
1 6.925 -9.8327 
1 -5.11976 17.2716 
2 -16.195 14.1336 
3 -16.9105 -3.75518 
2 -12.0775 9.97175 
3 11.4223 5.33284 
3 -13.4244 -3.32658 
2 -7.14432 -13.8854 
2 -10.3271 5.92478 
3 11.5503 6.81199 
3 1.85009 11.9876 
1 -12.4474 -10.7497 
1 1.84924 -14.7072 
2 5.58317 -2.21322 
2 -6.00516 -21.2384 
1 3.54213 8.25915 
2 -11.7504 -14.4573 
3 -13.8343 5.17868 
2 -13.6062 10.5208 
2 -7.23045 -0.812555 
1 13.593 -1.19339 
1 11.7333 0.145708 
1 -1.93446 4.48373 
2 -3.42419 2.87692 
3 -10.291 3.33101 
3 -4.52717 -8.72501 
2 -4.6028 -4.22667 
2 -12.373 -8.75193 