ITEM: TIMESTEP
0
ITEM: NUMBER OF ATOMS
1290
ITEM: BOX BOUNDS pp pp pp
-1.6448100000000000e+01 1.6448100000000000e+01
-1.6448100000000000e+01 1.6448100000000000e+01
-1.0000000000000001e-01 1.0000000000000001e-01
ITEM: ATOMS type xu yu 
1 -6.33677 -4.73782 
2 -10.7292 -1.36201 
2 7.95804 13.6619 
3 -4.93917 -13.1677 
1 17.0182 -12.5611 
1 0.110277 -14.636 
1 -18.7951 -6.64677 
2 4.73342 -16.4174 
1 15.1808 9.97927 
3 5.96326 -14.0879 
3 4.77944 6.21671 
3 -1.14743 11.6896 
2 -3.44829 -2.94515 
3 -19.4629 15.6167 
1 0.361836 6.34127 
1 4.56793 -14.9059 
3 -16.5524 12.4726 
2 -16.2476 6.61788 
1 0.915793 -15.457 
3 8.84123 -8.87364 
1 7.91743 7.51791 
1 15.6661 4.31007 
1 -3.04344 -17.0416 
1 -2.49713 -9.39976 
2 10.4135 -7.80015 
2 -5.79863 -9.99487 
3 -14.9483 -0.142528 
1 16.2365 -6.43128 
2 -15.6967 7.99758 
3 -20.1146 14.8011 
1 -21.7676 1.09124 
3 20.1217 12.3651 
2 3.23388 -16.2301 
1 -4.7137 16.3418 
1 -5.865 -1.98941 
3 0.162539 -2.90123 
1 -2.70263 5.2014 
1 -2.21827 13.6303 
1 0.752405 13.3866 
2 9.73049 -1.85797 
2 12.1027 18.2006 
3 -9.62487 -0.00498344 
3 11.3912 3.58131 
1 -7.53332 -2.61512 
2 -0.245461 10.153 
1 -18.5763 1.3609 
1 -8.37391 -6.25629 
1 3.2895 -5.9209 
2 -11.1689 11.3606 
1 6.08421 -3.02262 
1 18.6469 3.46229 
1 0.0983646 -5.85407 
1 9.1747 -14.0708 
3 15.1975 13.6486 
2 11.1035 -1.72074 
1 -3.98543 14.3247 
3 -8.61644 17.9122 
1 -9.97245 -12.4541 
1 7.31615 -7.99051 
2 -13.3785 6.76385 
1 -1.51053 -3.14401 
1 4.71148 -2.11677 
1 9.75446 -8.41512 
3 -16.648 -7.39492 
2 15.5247 12.8069 
1 -19.5365 6.58022 
2 -4.2475 -9.57808 
1 -7.10167 -8.5845 
3 4.627 4.28562 
3 16.0736 -9.16802 
2 13.2792 -0.285826 
1 -3.10473 6.26689 
1 5.08789 -0.402047 
3 -21.1116 -5.17403 
3 14.748 -1.07811 
1 7.12351 4.99522 
1 -3.77487 1.99887 
3 21.5218 9.45176 
1 11.3607 15.7964 
1 16.7311 -10.94 
1 -6.32076 4.54182 
1 9.63094 -11.9427 
1 -8.45947 -3.18314 
2 1.19671 3.00278 
1 8.85167 -1.77419 
3 -11.5285 -8.32521 
1 8.25759 -10.9294 
3 9.79219 7.77633 
2 14.5695 -8.59373 
2 13.861 4.87961 
3 -6.48759 -10.5529 
2 2.16394 11.1815 
3 9.06495 4.12886 
2 -15.3959 -10.4784 
2 -5.51605 4.00671 
3 17.6368 -17.4068 
2 6.41679 -1.1084 
2 -5.16569 10.1646 
3 3.985 -8.88292 
3 -2.92131 -0.575358 
2 13.7491 13.0161 
3 -14.4979 -10.2924 
1 -2.42582 14.9159 
1 4.34085 13.997 
1 -2.22836 -16.2436 
1 13.8296 -5.56596 
3 -9.08903 4.63293 
1 -17.0994 14.4957 
3 7.0892 8.10196 
2 6.24602 -12.4805 
3 -5.89156 -2.97906 
3 -11.585 -1.74054 
1 -7.03836 0.0279411 
2 -14.9642 -15.0508 
3 -7.94729 -0.333798 
2 -12.3818 0.820749 
3 2.34723 16.5307 
1 -6.90304 12.906 
3 -24.3793 -13.3682 
3 -9.52684 12.232 
1 5.46067 -12.0775 
1 -14.1946 -9.28679 
3 -6.29181 3.58707 
3 3.24642 -10.3236 
1 10.8311 7.55477 
3 14.1498 -0.271724 
3 -4.17062 -3.45075 
3 11.6041 10.0568 
1 19.513 -2.52677 
2 14.8592 18.8931 
1 10.4651 -2.32429 
1 0.108148 7.39491 
1 5.52093 10.2385 
3 -12.4371 -2.31441 
1 17.6805 -9.61476 
3 -14.8703 5.43522 
2 -3.25323 -9.88104 
2 -1.03743 1.20321 
1 -12.7059 -5.1117 
2 3.48432 14.1851 
1 -7.88078 13.5614 
3 -4.15812 12.5575 
1 -11.0682 -17.936 
2 2.41724 -5.65387 
1 5.55993 -8.82006 
3 0.350754 -10.6524 
2 15.3762 -7.52516 
2 -0.751604 -14.8428 
1 -3.55069 -9.04785 
3 13.0117 4.56806 
2 -2.12715 -10.2108 
3 -15.6937 1.01986 
1 16.4777 8.56207 
3 18.9088 12.9888 
2 4.97576 -10.312 
2 -5.79377 -13.3876 
2 -7.64467 -3.51316 
2 2.16687 1.54554 
1 -5.28346 18.7791 
1 10.2565 -14.0609 
1 5.26718 9.15634 
1 15.147 3.32635 
1 -16.9065 -2.76884 
1 6.90137 -9.90584 
1 -5.16302 17.3578 
2 -16.2367 14.1509 
3 -16.9403 -3.80715 
2 -12.081 9.9699 
3 11.4751 5.40163 
3 -13.414 -3.47346 
2 -7.16822 -13.9614 
2 -10.2181 5.9168 
3 11.5804 6.70673 
3 1.80238 12.0013 
1 -12.46 -10.8263 
1 1.84863 -14.7655 
2 5.59968 -2.26194 
2 -5.94419 -21.1864 
1 3.55521 8.14212 
2 -11.8001 -14.4281 
3 -13.8633 5.1941 
2 -13.6137 10.6385 
2 -7.23548 -0.860383 
1 13.6474 -1.11864 
1 11.7066 0.1491 
1 -1.94177 4.42033 
2 -3.37553 2.81877 
3 -10.1986 3.3631 
3 -4.50831 -8.74386 
2 -4.58513 -4.23975 
2 -12.2573 -8.83824 
2 -2.67606 -21.4702 
2 -3.90532 -12.2725 
1 12.9035 12.7281 
2 -9.72261 10.2102 
1 -14.0952 6.15628 
1 7.84408 -3.36222 
3 16.5317 5.05587 
3 13.9734 -9.26557 
1 -6.92467 18.0759 
1 8.29941 -4.37728 
3 10.7851 19.6364 
1 9.46349 -9.60955 
1 9.39644 -4.38025 
2 10.4803 3.84718 
1 -11.4881 -0.780021 
1 -12.4681 6.56163 
1 -9.16687 -14.1586 
2 5.50599 0.434597 
1 -5.14653 -3.56656 
2 5.65779 -6.58432 
3 -13.2359 -11.4072 
1 -10.3554 11.7629 
1 10.6588 -3.38962 
2 4.17859 -5.68058 
2 18.553 19.1071 
2 -15.1998 -4.04024 
3 11.3314 -0.823381 
2 -4.42987 4.8862 
3 15.5614 7.97436 
2 -1.74089 12.8659 
2 0.752728 -13.0019 
3 -5.68421 14.6297 
2 2.73574 0.458744 
1 -9.51511 -3.53225 
2 8.99912 -12.6025 
1 12.3402 -11.8607 
3 -5.97656 12.5928 
1 7.61363 -17.4 
2 8.85028 3.27786 
2 0.419142 11.3389 
1 3.53828 -19.6498 
3 3.62302 4.66317 
3 -18.358 17.1617 
1 -5.30144 4.85886 
3 -6.92956 -12.3272 
1 -13.5762 14.3132 
1 2.68726 6.14132 
1 5.40697 6.95708 
1 -6.38878 -11.53 
3 1.10788 -17.7844 
1 1.68831 7.56173 
1 -9.01906 -1.66943 
1 7.03209 1.48636 
1 -11.4837 -9.32951 
3 -7.12432 15.3751 
2 -6.6377 -2.52566 
2 21.1947 -12.6434 
1 -14.7001 -4.7845 
3 6.40415 6.62323 
3 1.62134 -12.8391 
1 4.02724 -12.2434 
1 -13.4661 -13.6599 
3 -9.47131 14.178 
2 15.6201 5.19338 
1 2.78676 11.8296 
2 -10.3464 -20.2204 
3 2.03038 -17.3302 
1 8.70832 14.1911 
2 1.80128 -15.662 
3 -17.6017 -12.1068 
1 -3.97014 -10.4154 
1 15.101 -0.148207 
3 -10.4427 10.8093 
1 15.5306 11.9125 
1 -3.52873 27.503 
1 2.83471 8.98225 
2 -2.5181 0.25216 
1 14.8949 7.25178 
1 11.0695 4.51247 
1 -12.4904 19.8465 
3 2.10214 -3.01369 
3 8.77237 13.2423 
2 3.5503 -21.5099 
1 -11.7766 -3.81846 
1 -13.6046 -4.49536 
1 -8.54048 14.4927 
1 -7.52492 5.62006 
2 -17.7001 -4.29154 
1 -10.1734 -4.37536 
1 15.0793 8.82725 
2 -11.493 -7.44576 
3 -16.4451 -15.8178 
1 10.8064 6.10358 
3 10.3671 -4.32571 
1 14.2113 -10.2088 
3 -3.01885 -3.70698 
3 14.6584 4.13423 
3 0.721062 -6.57798 
2 -6.22319 15.402 
1 0.581607 10.4558 
3 -6.27014 18.7673 
3 8.15217 2.74519 
2 -12.9725 5.03453 
2 4.13948 -7.43668 
2 17.199 -11.6957 
1 -15.4703 7.06503 
1 -11.9979 11.7546 
1 2.36051 -6.57488 
2 -7.74497 12.6996 
1 7.34023 6.32557 
1 16.577 -8.30174 
3 17.6883 3.81549 
1 1.36031 -16.4735 
1 17.864 -13.2278 
1 9.43302 -6.35717 
1 -8.18558 -8.66229 
1 -13.121 11.4028 
3 -12.4384 4.32314 
2 15.1425 1.65659 
1 -3.64971 -11.4501 
1 -2.04167 12.0351 
1 3.72003 -4.92773 
1 -1.66398 -6.65658 
1 -19.4089 21.0961 
1 -11.5387 -13.5706 
3 14.0389 -14.4566 
1 -14.5607 13.7907 
3 1.92343 9.33853 
2 0.659601 4.44263 
2 8.02791 24.3922 
1 9.7712 5.68078 
3 -6.14903 -8.58848 
3 -13.1123 -1.56688 
1 8.98537 7.23426 
1 12.4876 -0.645767 
1 -20.1361 -5.35975 
3 -14.1307 -8.31308 
2 4.80586 -12.6539 
3 -17.8253 19.7546 
2 -4.18497 11.6661 
1 -11.2102 2.00824 
1 9.76269 -15.0333 
1 -0.828725 -8.85175 
2 -9.26524 -10.0346 
2 9.70239 10.7028 
2 -5.20313 6.51118 
2 7.29024 4.11983 
1 8.10044 1.77426 
2 1.06303 -18.6728 
1 4.61864 3.2934 
2 7.94551 -0.124356 
3 4.12365 -0.517942 
3 -4.9163 22.7616 
3 18.1062 -6.81833 
1 4.3432 7.30318 
1 -0.747416 18.9794 
2 1.4228 12.7965 
1 -9.99676 -9.52645 
1 -12.2123 5.5095 
1 -9.13318 -4.67169 
3 1.7194 13.6245 
3 18.7819 -12.9215 
1 -10.8874 -10.8689 
1 -4.06358 -15.7438 
2 3.9124 -9.76708 
3 6.53136 -6.47812 
3 3.49429 9.78144 
1 14.7446 5.0772 
1 13.0109 7.62532 
1 -1.61895 18.2996 
3 10.4836 8.51425 
1 21.4817 -15.205 
3 -10.2418 -6.04832 
1 -3.72803 -4.34571 
3 -9.97294 -1.92871 
1 -15.9041 0.0805003 
3 -0.199401 13.6769 
3 1.13279 -2.48435 
1 -9.19774 5.58921 
3 19.2633 15.4079 
3 -11.9488 14.554 
1 -1.8285 10.9595 
3 -1.47241 -17.6882 
3 -8.35701 6.08071 
1 0.274083 -1.92256 
3 1.27528 11.1434 
1 -8.18487 -15.8704 
1 9.10411 2.42837 
1 9.49578 11.687 
3 15.4206 0.800338 
1 13.6224 0.540748 
2 13.2871 9.22778 
3 8.73774 8.15736 
1 -9.41168 -6.58577 
2 -6.00113 -3.87966 
1 -10.8492 -5.22962 
3 7.19719 -16.5101 
3 1.7425 -5.06537 
1 1.86203 -8.28977 
2 -9.5306 -16.8755 
1 3.64927 0.429402 
1 -9.63058 6.57962 
3 -15.9351 -2.59106 
1 1.12054 -0.485083 
2 -16.5151 -1.91976 
3 2.55991 -7.61179 
2 -6.18774 7.71315 
3 -11.7783 -4.80616 
1 3.00236 15.7981 
2 -9.91681 -5.21541 
2 10.1546 9.38006 
3 11.1511 14.7748 
3 3.46901 -4.02331 
1 4.30118 -6.55463 
1 5.7566 5.91739 
3 9.63621 -7.37244 
2 -0.158369 2.7087 
3 14.0676 5.77286 
1 -3.41263 7.27346 
1 17.6961 11.3191 
3 -9.54383 -7.53659 
1 -6.23352 17.2408 
1 -7.20076 10.2876 
1 -14.4215 17.1076 
2 -13.1886 9.22741 
2 -7.97894 -23.0654 
2 6.25755 -19.3527 
1 5.19906 -3.95848 
3 12.5297 -4.41925 
3 17.2264 -1.61089 
2 -9.2779 21.0124 
1 -0.10142 8.47935 
1 -14.4931 14.8911 
1 -0.420249 11.0176 
1 -8.53238 -7.38819 
3 -12.1882 1.6841 
3 -7.70373 16.1754 
3 -5.40365 -4.53318 
2 -11.2398 14.0743 
2 5.52877 4.40799 
1 -6.44807 -5.82617 
2 7.08858 10.3742 
1 3.49035 -8.07111 
3 10.3348 23.6575 
3 7.3239 -2.51398 
1 13.7987 12.117 
2 15.0288 -10.5372 
3 10.5416 -12.2462 
1 -5.40093 3.11147 
1 5.56295 -1.37202 
1 8.16165 11.6939 
1 -2.30209 7.0608 
3 13.9529 7.46166 
1 -7.34471 -4.34927 
3 13.22 -9.98269 
3 -7.5785 -7.74905 
1 -0.831972 -5.24016 
1 -20.6204 3.04118 
1 -10.1488 5.01739 
1 1.86498 0.731267 
3 -5.52745 1.43764 
2 10.8887 -5.0648 
2 7.34463 12.1158 
3 16.6327 -5.53471 
1 23.3689 17.6669 
3 -3.56477 4.68739 
3 -1.84084 8.04644 
1 -16.4302 -1.01108 
2 12.0222 1.00618 
3 8.27539 6.58178 
2 16.7748 9.40827 
3 11.3088 -7.61829 
1 -10.5277 9.864 
2 9.16656 4.99945 
2 -7.12155 -5.21495 
1 17.2424 13.4688 
2 8.82369 -7.0158 
1 11.234 12.799 
1 19.9198 -6.1433 
1 16.2968 10.2392 
1 6.86484 12.8639 
3 10.8546 2.03967 
3 -4.49501 10.8044 
1 -0.0814172 -8.05621 
2 12.0153 -11.0067 
3 3.13668 -0.353568 
1 1.84491 10.3366 
1 -5.4417 10.9918 
1 6.28997 7.57676 
2 7.05622 -7.1681 
1 8.7162 -7.90259 
2 -14.9899 6.30743 
1 -14.5734 4.52344 
1 6.45514 -2.00854 
2 4.67949 -1.21755 
3 8.45293 -2.6351 
1 -9.8648 -0.988647 
3 6.4291 11.9392 
1 5.38024 13.6988 
3 -11.5345 4.8168 
1 -3.87077 -1.37787 
1 9.53482 8.74147 
1 -10.6476 -7.75228 
3 -9.21524 -2.60426 
3 7.22446 -1.43731 
1 12.1349 4.20337 
3 7.80287 -18.3522 
3 -7.68217 -13.1795 
2 1.87599 -1.07449 
3 0.218645 -13.6872 
1 17.4257 9.98972 
1 2.82941 -11.175 
2 7.72041 -10.2406 
2 4.85166 10.8192 
1 14.5053 -7.68918 
3 1.56349 -6.03767 
1 2.0671 3.3226 
1 14.8978 11.0265 
3 9.0198 1.45997 
3 -13.8187 2.55527 
1 1.12365 -11.2178 
3 12.6582 0.364036 
2 8.50322 10.0374 
1 -8.64158 -16.9692 
1 15.9313 -4.80734 
1 -14.5641 -5.87669 
3 1.33358 -10.2469 
3 -0.182961 11.9759 
2 2.35458 6.98545 
3 10.4777 -15.6845 
2 -8.66702 0.298785 
2 16.3806 2.48811 
3 12.5038 -2.36742 
2 -1.58345 -5.75993 
1 -2.76113 9.62795 
1 12.578 9.84522 
1 -9.17886 7.62411 
1 4.81176 -17.3144 
2 -12.7147 14.1324 
3 -17.0318 16.2219 
3 8.87574 29.3383 
3 4.61059 0.421505 
3 -1.99912 -11.1137 
1 -19.8579 -6.42515 
3 -3.02877 -18.7436 
1 20.1553 15.0528 
3 -3.13106 -15.9015 
3 -1.35705 16.2235 
2 -12.1881 8.18216 
2 -7.25162 11.1582 
1 19.7474 -8.76418 
1 6.39375 0.567881 
1 -13.9848 -0.119568 
1 7.59334 -13.7311 
2 -7.5916 6.55565 
3 -2.18278 6.07933 
3 5.0432 -5.944 
3 -13.862 9.77807 
1 7.22286 3.20746 
1 1.73654 2.30692 
3 15.9564 -14.8998 
3 6.29269 -3.95848 
1 8.33749 0.699331 
2 8.29065 -14.2491 
1 -3.32407 12.0462 
1 5.54486 11.3947 
3 -12.1574 -0.0572723 
2 12.8839 3.68564 
2 2.61739 9.87533 
2 -2.72572 7.82851 
1 6.50013 9.72255 
1 -7.54262 1.65883 
3 -3.62707 9.21498 
1 7.13747 -21.6307 
2 11.9513 -17.7754 
2 -11.5894 3.92604 
2 -7.80774 -12.2677 
2 -6.06484 9.08996 
1 20.4431 -16.7905 
1 -11.1188 -11.9461 
1 9.46285 0.606089 
2 -8.7974 6.83141 
3 -17.3552 -5.73158 
1 -17.9404 -14.8578 
2 -1.76174 5.29434 
1 10.3822 -1.19978 
1 2.74477 -1.2076 
3 -5.93349 -6.65182 
1 3.23859 -13.8319 
1 1.61844 6.46745 
2 3.70237 -11.4072 
2 4.4351 8.20393 
1 -8.06891 7.31227 
2 7.33068 -12.914 
2 17.0124 10.758 
1 18.0991 7.96126 
3 -10.0931 -11.4909 
2 11.1487 10.8078 
3 -13.1473 5.89931 
1 8.54128 16.1487 
3 3.74854 2.89302 
3 12.3578 -12.8645 
1 -12.4178 -7.91631 
1 -7.43245 -10.407 
3 -15.1033 -3.16207 
2 8.79789 12.3344 
1 7.06531 -0.43237 
1 12.5951 8.64834 
1 3.98975 10.6243 
2 -7.75085 -15.09 
2 -3.56449 -15.0324 
1 -8.54152 2.43543 
1 8.00228 -9.39598 
1 8.8832 -5.35082 
3 21.2802 -2.87954 
1 -2.48644 -5.80144 
3 5.57784 -13.1003 
1 7.16582 -10.9894 
3 -3.36945 -6.33175 
2 -15.5795 -0.745232 
2 6.34429 -9.21173 
2 0.0699712 12.8169 
2 -7.51415 8.03786 
3 13.1216 -16.2832 
2 -8.93247 -8.19868 
1 -13.4687 16.4929 
2 -11.9151 2.5232 
3 5.71384 -4.79143 
3 6.37326 -8.29846 
3 -1.52291 -9.53815 
1 -0.340886 -9.92072 
1 -2.74266 -8.3089 
3 19.4176 17.4921 
1 -13.7452 7.58022 
2 9.98747 2.42578 
1 -6.94639 -1.7061 
1 13.3948 2.93667 
3 -8.49164 1.41219 
2 -8.7766 13.5952 
1 -18.7341 -13.4955 
1 15.0083 6.13897 
1 -6.67049 -13.2444 
1 4.78297 27.8893 
1 -4.48735 8.50148 
1 -10.2373 -13.6322 
1 1.18311 -9.20176 
1 7.88031 8.63156 
1 -6.61845 14.5745 
1 2.19204 -0.263567 
1 19.83 13.3098 
3 -2.1689 -7.50712 
3 13.3938 -7.33444 
1 -4.3055 6.63283 
2 7.07563 9.022 
3 -9.13848 -5.64413 
1 1.45018 -7.26224 
3 -10.7364 4.20481 
1 -14.9505 -2.23385 
1 -13.4751 4.3035 
1 9.45618 -2.7387 
1 -17.2545 -11.1894 
1 10.0199 -5.28323 
3 9.5287 14.7218 
1 -9.09995 3.60736 
3 3.20585 -3.07013 
1 -15.5074 17.1627 
1 10.641 -0.102497 
2 -1.04939 8.55669 
1 -12.5093 -9.7138 
2 -18.5992 -17.478 
3 10.3836 11.2409 
1 14.9812 -9.40912 
3 -19.1803 -8.29359 
1 18.3877 10.4649 
3 -3.72523 -8.08248 
3 7.36597 0.546977 
2 0.54964 -9.80703 
1 20.7626 -6.84542 
3 12.3309 6.00895 
3 12.0959 -19.6185 
2 -11.5772 6.46824 
3 3.73563 6.30025 
3 -3.55703 3.68682 
2 14.356 10.3238 
3 -12.5604 -14.0143 
1 4.1604 -10.6318 
1 18.1643 0.788896 
1 3.02234 1.31123 
3 0.890965 -8.25521 
3 8.09314 3.75363 
3 -1.1161 10.2936 
1 -0.883005 5.04756 
3 0.0765372 -4.88903 
1 -5.08341 7.41105 
1 6.16043 -7.34675 
2 -3.51015 10.1517 
3 3.07586 -12.1004 
3 7.32645 -4.16099 
2 -1.9586 2.67575 
1 8.07064 -1.00373 
1 -1.85007 -4.90758 
2 -4.75732 -18.0776 
3 -14.0816 -1.86124 
1 -0.106948 -0.262746 
3 16.3234 -11.8815 
3 9.73579 3.30957 
3 -11.1649 12.2392 
2 -19.4636 -4.7354 
3 9.4667 15.7627 
3 10.4172 12.2533 
1 -4.77064 -12.2086 
3 -0.129485 17.3403 
2 7.79976 5.56208 
1 -5.85012 -12.5063 
2 6.9605 14.8538 
1 11.2461 11.6918 
1 -20.394 15.7946 
1 -2.61494 3.33852 
3 -11.8654 16.8555 
1 -17.4513 -8.39944 
1 -3.39308 0.276065 
3 -4.64931 -11.2235 
2 -0.640135 -3.29131 
1 7.73454 -5.31625 
1 -5.45445 -0.243902 
2 10.3609 14.345 
2 0.380174 1.43524 
1 -16.9101 -12.8439 
3 2.22116 19.0572 
1 -9.14201 -10.944 
2 0.560319 -7.43926 
1 -1.03247 -4.13293 
2 12.9003 10.7249 
1 -2.69902 17.9195 
1 14.0626 -2.9976 
1 -1.69737 1.80724 
1 -1.38332 -1.36538 
1 11.5183 -2.56272 
3 8.59736 15.1789 
1 4.46926 2.20006 
1 10.3551 -10.231 
2 -2.54411 -6.68517 
1 -20.9365 -1.57045 
1 5.55674 2.54852 
1 -4.10593 15.4405 
1 -2.71488 2.23434 
3 -5.1895 9.27464 
1 -4.604 4.00915 
2 0.886728 -5.41896 
2 -1.43595 6.92204 
2 -10.984 16.9074 
2 -15.9174 -9.08125 
2 -9.83563 4.16739 
2 -2.80953 4.2261 
2 12.1034 -9.20703 
1 8.65406 -15.042 
3 -10.8477 -12.8825 
3 5.02748 -7.21577 
3 8.70243 -11.7573 
1 -1.24872 6.05119 
1 -6.11494 0.620583 
2 18.1877 9.5193 
1 12.8514 1.35662 
2 -0.989263 -0.56605 
2 -14.2414 -2.81184 
2 1.14523 9.77745 
3 22.8707 -10.476 
1 18.8108 8.82952 
2 5.45895 -14.8199 
1 -10.7085 6.71699 
2 0.472515 -16.2299 
1 -9.42225 15.1531 
2 -5.78506 -14.8774 
1 -23.2839 16.7403 
3 -9.3716 19.6861 
3 -2.80284 -4.73108 
3 1.12236 -1.48396 
1 -5.55406 -10.8361 
1 -9.33975 0.919488 
1 2.57597 -12.927 
1 14.8074 -5.07421 
2 9.76629 -0.219704 
2 -8.0212 15.2734 
1 -6.76118 -3.41815 
2 9.78867 -3.58324 
1 -3.48878 -14.1404 
2 -2.15235 -17.1246 
1 16.0459 1.61066 
1 -0.208984 -6.97177 
3 -0.810588 -6.21084 
3 -12.2366 3.32756 
1 -6.66165 -16.6775 
1 9.39452 9.86276 
3 10.4309 16.1958 
3 -3.54846 8.21188 
1 -8.40597 -9.89015 
1 -5.35885 -9.23936 
1 -0.411176 1.83582 
2 7.3914 2.31271 
1 5.78279 -9.91363 
1 -17.7315 -17.3809 
3 9.43223 -1.02533 
1 8.21506 4.72755 
2 14.256 3.27257 
1 1.98728 -1.98857 
1 6.39461 4.07301 
1 12.8872 -10.9077 
2 11.9305 9.23389 
1 -3.45971 13.274 
3 7.18163 -8.93702 
2 15.7982 11.0126 
1 3.12212 -9.33093 
3 4.07153 1.30129 
2 4.05704 -14.1893 
2 -18.6374 6.63182 
1 10.9359 -8.50206 
3 -13.2048 -12.4251 
3 -7.43722 -11.4037 
2 -0.497392 -10.8629 
1 -6.61493 2.70015 
1 -6.55551 -9.54478 
3 -1.23835 13.5972 
1 0.422902 3.45799 
3 2.8546 -18.0641 
2 16.0243 15.3629 
1 -13.9925 -7.33351 
3 -3.52239 11.0773 
1 11.363 -4.3012 
1 12.0185 -8.32006 
1 7.48687 -6.38911 
1 -4.57117 1.24768 
2 5.11601 12.1635 
1 18.8418 -11.95 
1 11.9028 1.91153 
3 -10.6607 -8.82736 
2 6.92055 -5.69928 
1 -8.19298 4.2642 
1 9.37376 -10.8109 
3 3.55683 -14.9296 
2 13.7544 -10.9494 
3 2.15566 -9.21161 
3 -7.20111 -15.8019 
1 -14.5306 12.1976 
2 3.5751 2.02691 
2 12.8534 -8.04113 
2 -0.392938 5.83484 
3 -2.03903 -3.95557 
2 3.86658 3.79005 
1 4.65509 -8.16431 
2 -13.2777 -14.5376 
1 -18.3402 -11.3207 
3 -12.3195 10.8326 
1 2.33253 12.8328 
3 0.840399 7.98188 
1 6.25509 8.66122 
1 4.42723 -21.2765 
3 8.64838 -10.0827 
2 -10.2239 -6.95665 
1 -8.64526 -12.5845 
3 -13.6825 -5.48381 
3 -1.81228 -2.22024 
2 3.45602 -12.9354 
3 -8.65242 9.2154 
3 20.2272 -4.1418 
1 -5.1147 -6.11124 
2 -11.686 -11.2459 
3 -8.43118 -11.6339 
1 11.4371 17.5476 
1 9.77382 -13.0567 
3 -2.46471 -14.0258 
2 6.34162 -10.624 
1 8.09961 -12.5012 
2 -13.8536 0.771695 
2 17.4243 4.74244 
3 13.015 18.2687 
1 -0.848313 12.6947 
1 -0.401448 16.4099 
1 12.9651 -8.96446 
1 4.17974 -3.31366 
3 -13.2374 3.37614 
1 4.58938 12.8725 
1 14.6518 12.7666 
2 -10.7999 -9.95091 
3 -18.6278 -4.22883 
2 -11.876 15.426 
1 -0.661408 3.43405 
1 3.81515 -1.49894 
1 -11.0549 -6.64755 
2 1.86402 8.44326 
2 -3.06274 -13.3482 
3 -7.54739 -9.43783 
3 -9.06077 -9.13639 
3 6.30776 10.7854 
3 -1.63502 3.49065 
3 1.06026 5.68245 
3 -8.29695 -4.15569 
2 6.84376 -14.2118 
2 8.78065 16.993 
3 -5.05523 11.9086 
3 -14.5 7.02719 
1 -1.11804 17.2354 
1 7.95563 12.7615 
1 -9.58549 13.1924 
2 5.52531 -7.94854 
2 10.3314 0.720819 
1 6.12529 14.5135 
2 0.393663 -1.00228 
1 -5.79155 -7.61674 
3 -14.1331 1.60435 
1 4.24714 19.5646 
1 17.0638 -4.66343 
1 14.3692 -12.4282 
3 -7.41007 -6.06369 
1 11.1383 -5.92739 
3 -0.565235 6.71888 
2 3.31442 5.50955 
2 9.20754 6.38685 
1 7.52859 -14.8114 
3 13.5031 10.0919 
2 6.65146 5.76204 
1 -11.2529 16.064 
1 -8.83198 10.1679 
1 -15.8115 1.9715 
1 -14.4101 15.9837 
1 -15.9894 -3.57731 
3 5.58296 -16.7113 
2 -13.8204 -1.00087 
2 -4.31958 13.4451 
2 -3.33379 14.991 
1 2.66845 13.8639 
1 -4.66182 -7.7776 
1 1.04483 -3.43255 
1 -15.746 5.85767 
3 -4.88406 -1.78996 
3 5.12417 5.19181 
1 -14.9466 -11.2337 
1 -14.8186 2.4926 
2 -12.5024 -3.23174 
1 -10.3968 13.891 
1 -4.44814 0.160779 
1 -14.352 -3.72156 
3 -10.6004 -0.421455 
2 -8.24054 -10.7748 
1 5.51254 -10.9873 
1 -1.061 0.308035 
3 -7.5795 -18.4183 
2 -8.3585 -2.26764 
2 -19.5631 -13.7977 
2 -17.7805 -2.54766 
1 3.34172 -7.01525 
1 -11.5081 0.959393 
3 -0.208168 4.29881 
3 6.01835 1.46263 
2 1.95148 5.61961 
1 12.1986 -10.0935 
2 -10.5865 8.98535 
3 -12.7614 7.46453 
1 -3.04378 -12.4458 
1 0.771592 12.1884 
1 11.458 -12.5507 
2 -8.21007 3.34089 
1 -4.25841 2.98029 
3 -6.80537 -20.9682 
1 17.3035 -6.27058 
2 -6.67092 5.35675 
2 0.982669 -14.578 
1 7.89976 17.0494 
1 -0.941653 7.66829 
1 -16.0865 15.0121 
3 -16.8436 -0.0911972 
1 14.5161 2.41869 
1 19.4114 -10.4472 
1 -4.40956 18.15 
3 -0.232233 0.801368 
1 15.5161 -1.74489 
1 13.7805 11.021 
1 9.59778 12.7612 
2 -12.7348 16.9912 
3 10.311 -11.2122 
3 15.7558 6.83096 
3 -2.6458 12.7655 
3 11.0603 13.7638 
1 -5.06112 -19.9896 
1 -8.05322 -5.19414 
1 -11.3947 10.5124 
3 6.1524 5.02718 
1 2.91706 -22.1812 
3 5.10392 -2.99942 
1 11.9799 -18.6635 
2 1.96296 -10.9815 
1 2.59526 4.99453 
1 5.98565 -5.71486 
2 12.7418 2.27012 
3 -20.8657 16.6228 
2 -5.8003 2.29701 
1 -0.0953336 20.1836 
2 -1.09304 4.19678 
3 9.71284 13.7277 
1 9.95778 4.5749 
3 1.25444 1.47701 
2 -2.76456 -11.5845 
3 8.43485 -6.21946 
3 -13.1054 0.332611 
1 16.5562 11.5031 
1 -16.0485 16.1309 
2 -5.213 0.612577 
1 5.08058 1.26395 
3 0.295561 9.45785 
2 14.6003 8.08679 
1 11.0374 9.29487 
1 1.89086 -18.3073 
2 -4.39756 19.018 
2 -3.80456 -16.5901 
2 19.5704 -7.91652 
1 10.4646 10.2329 
1 10.5899 -6.9345 
3 16.1261 3.35125 
2 2.72585 -8.51729 
2 -5.06146 -2.66474 
1 -10.1643 1.66443 
2 -13.6413 12.1437 
1 1.23768 -13.7454 
1 12.0328 10.9131 
2 -5.65417 -5.38642 
1 14.4375 -1.97951 
2 7.97222 -1.89605 
1 -1.75849 9.12887 
1 0.630152 2.30064 
2 -15.1833 16.3694 
2 0.937084 7.0595 
1 10.3276 -17.6471 
3 -4.84767 5.7099 
1 -7.30291 3.62346 
1 -19.5946 -12.8803 
1 13.3378 -3.84179 
1 -5.3346 15.4967 
1 2.72007 17.4224 
3 2.59454 7.90576 
1 -17.3989 -15.7867 
1 17.3031 12.3682 
1 -11.8247 -5.79919 
1 19.8385 8.37439 
1 4.1513 9.04867 
3 -1.85822 0.838752 
1 6.32888 -16.0952 
1 -5.01442 13.9735 
1 -20.3544 17.4287 
1 -10.1343 -16.2295 
2 6.94061 -3.3335 
3 -17.3855 2.44854 
1 -8.62164 -20.2187 
1 5.79779 12.7124 
2 11.5406 -3.44244 
2 -21.4233 2.68437 
1 -4.22348 -6.80819 
3 5.53515 3.54114 
2 19.516 -9.5953 
3 -10.3349 -17.2522 
1 5.2978 8.05168 
1 -17.8443 -3.42823 
1 -2.56637 -2.83666 
1 -18.7941 16.3014 
1 -9.49722 11.0699 
1 -2.01491 -12.0846 
3 3.69784 12.276 
3 15.8991 9.33551 
2 -21.7285 16.6784 
3 21.9867 18.5529 
1 11.2599 21.4085 
1 6.36717 -14.9878 
3 -10.8485 7.67614 
1 -5.86436 5.786 
3 -11.0955 13.2088 
1 -12.0012 13.5806 
3 13.5952 1.99478 
1 0.258414 14.6114 
2 11.4857 -6.76105 
2 -10.0814 -2.82592 
1 -1.15088 -7.69434 
1 16.4439 7.49392 
3 18.7868 11.3578 
3 -5.6985 -16.4842 
3 -16.1223 -9.95156 
2 12.3151 5.10717 
1 -3.89922 5.58492 
1 13.7303 3.9755 
1 17.699 -8.50899 
3 -7.82162 0.665776 
3 6.04017 -0.320021 
1 2.98306 3.95503 
1 4.73509 -9.48005 
3 7.90566 10.6909 
1 -1.91079 -0.404355 
2 14.6431 11.8717 
1 2.64485 -4.6804 
1 6.49684 -17.2558 
1 -12.2881 9.10836 
1 -4.3551 9.8282 
1 6.55728 -13.3239 
3 -7.29468 4.6707 
1 -6.99497 7.2943 
3 -20.4791 -3.39976 
3 3.00913 -2.11288 
1 -3.93544 19.7599 
1 -11.0919 5.69608 
2 -9.22331 8.51616 
3 -14.971 -12.2328 
3 3.9368 16.0632 
1 -7.71839 8.93561 
3 7.96308 -7.2475 
1 -2.8759 -10.6814 
1 -0.827107 -18.4224 
1 13.6385 17.492 
1 -0.702402 9.3924 
3 -8.71207 -21.27 
3 -4.6643 -0.800507 
1 4.03609 -15.8495 
3 -1.06899 2.5619 
1 0.0329311 -3.88828 
2 11.6611 -13.412 
2 -8.3421 5.17139 
1 0.738111 0.592737 
2 7.79667 -11.664 
1 -2.47768 -1.45558 
2 -3.82467 -0.492532 
3 1.30993 3.87752 
1 -9.63335 9.29926 
1 14.1904 9.44021 
1 -12.8136 2.45929 
1 11.9468 7.59987 
3 4.95554 -14.0142 
2 -12.2926 -1.18922 
1 -0.746776 -2.35749 
3 12.309 -7.25855 
2 12.8389 -1.49905 
1 -15.8149 3.05249 
1 14.2241 13.7595 
3 0.860152 -12.1386 
1 -24.0514 10.8408 
1 -11.3471 8.48835 
2 -4.22726 7.61566 
3 1.81322 -4.04426 
1 9.99197 6.80664 
3 -2.64702 8.69377 
2 -14.0805 -11.0796 
1 -11.7595 7.38067 
1 -12.5146 -15.0254 
2 12.4928 6.88569 
2 2.13597 4.2201 
2 7.05268 -15.5818 
2 4.33523 -4.22536 
1 3.84359 15.0164 
3 -6.87941 9.40009 
3 -3.21882 -2.096 
1 12.8405 11.6198 
2 -10.2018 -18.1471 
1 -1.05185 -11.5777 
1 -6.06658 13.6188 
1 13.7566 14.7149 
2 -5.48666 21.1964 
1 12.4324 19.0464 
3 -9.1241 16.7983 
3 -4.88405 2.22578 
1 -6.00846 6.85765 
2 14.6555 -5.94631 
3 0.161779 -9.0165 
3 -0.438439 -1.26559 
3 -1.77512 -8.51476 
1 -5.5846 8.36138 
2 -11.2858 0.111978 
2 -5.11159 -7.00929 
2 -18.3544 0.52338 
1 -12.9864 -0.62131 
2 -17.2908 -0.866182 
3 -2.68912 10.5517 
3 4.6402 -11.4877 
3 14.7573 14.62 
1 -6.7062 8.43048 
1 -10.825 -2.32088 
1 2.00415 -11.9085 
1 3.22372 7.11927 
1 -1.21611 -12.8786 
2 -3.68655 1.1101 
1 -10.0787 8.26373 
3 12.0576 12.2262 
1 -16.8153 5.93217 
2 10.6832 -14.8344 
3 -6.7622 6.24863 
1 10.6493 2.98609 
2 2.90552 3.08966 
1 1.48702 4.83116 
1 15.8201 -10.1248 
2 -5.50299 -1.14835 
2 10.405 13.155 
3 4.61522 -22.9865 
1 7.0449 -12.104 
1 11.3436 -14.2313 
2 5.67568 15.2981 
1 -3.18132 -7.28949 
3 11.2821 -10.5125 
1 23.1228 -8.46127 
1 7.67158 9.70501 
1 6.68497 -4.86234 
1 13.7585 8.44336 
2 -6.99879 13.7806 
1 -16.7468 13.4319 
1 10.0115 1.54871 
1 7.06994 13.933 
2 19.0551 -6.43777 
2 -6.97178 0.930055 
1 -8.85314 -0.590698 
2 10.5642 5.24539 
2 17.5483 -5.41426 
1 -15.9497 -14.7545 
1 -10.7355 -3.43988 
2 2.73089 -14.5762 
1 -6.34064 -0.832623 
1 -4.62491 -5.12907 
3 11.5165 8.44874 
1 16.7644 4.11723 
2 -1.61929 -13.6958 
3 -11.653 -10.2924 
1 -6.87892 -6.94866 
1 -10.4676 0.565625 
1 -12.9416 10.0764 
2 -8.5289 -13.4916 
2 -1.71926 14.3581 
1 0.219578 5.20287 
3 5.08922 14.6371 
1 -9.60765 2.62055 
2 -1.96094 10.0289 
1 0.0433048 -11.5885 
3 -11.2086 3.08931 
1 0.952952 -4.5195 
1 4.19586 5.43203 
3 12.115 -6.14686 
1 11.269 -9.5318 
3 2.71595 2.24231 
2 -9.26915 1.81582 
1 -4.1839 -2.46062 
2 10.2799 -6.11726 
1 1.07629 8.89197 
1 17.2605 -7.40198 
1 8.84547 -0.265849 
2 7.09521 7.19102 
3 -8.06085 10.7781 
1 -14.736 -1.10371 
3 17.7543 18.7076 
3 -0.457887 15.4018 
1 13.0908 13.8043 
3 8.66573 9.18498 
3 -13.0717 -7.08369 
3 6.2939 -11.5342 
1 -7.78946 11.8366 
2 -15.0139 1.62056 
1 5.297 -15.7178 
1 -2.77985 1.15585 
3 -19.41 -2.11926 
1 -17.7181 -6.67094 
2 -1.95178 17.481 
2 14.9841 16.3827 
1 -7.98054 -1.38375 
1 -8.00759 -14.2184 
3 -10.4653 17.6231 
3 -7.5968 2.67251 
1 -12.2751 -11.9378 
1 -16.0705 -13.6528 
2 6.32868 3.18397 
2 -10.0156 18.4066 
1 0.451009 15.7772 
1 -6.04365 -22.9107 
1 15.7413 -13.9361 
2 -10.0331 7.35977 
2 -14.7977 -7.71331 
2 -14.9145 12.981 
2 13.1792 -2.95564 
2 -16.5544 0.753614 
2 2.63392 -3.75237 
3 -2.22228 -13.0349 
1 8.66192 5.70987 
3 -6.40584 -21.9682 
1 -6.45589 1.65319 
1 -1.28231 22.4198 
2 20.9683 12.6882 
2 -7.76885 -6.8908 
3 -15.3484 14.3954 
3 -8.38908 8.22286 
2 -6.66102 -7.8174 
1 -14.1644 -14.6584 
2 -11.0426 -4.31467 
1 13.1514 5.49519 
2 3.86263 -2.43595 
1 -13.1402 1.33787 
1 2.30195 -10.165 
2 -4.22659 -5.93185 
3 6.52144 2.33766 
2 -10.4923 2.52002 
1 17.531 8.88879 
2 -5.3075 -8.35965 
ITEM: TIMESTEP
1
ITEM: NUMBER OF ATOMS
1290
ITEM: BOX BOUNDS pp pp pp
-1.6448100000000000e+01 1.6448100000000000e+01
-1.6448100000000000e+01 1.6448100000000000e+01
-1.0000000000000001e-01 1.0000000000000001e-01
ITEM: ATOMS type xu yu 
1 -6.33134 -4.73974 
2 -10.7287 -1.36897 
2 7.95134 13.6624 
3 -4.94454 -13.1688 
1 17.0148 -12.5574 
1 0.102948 -14.6414 
1 -18.7997 -6.64109 
2 4.72633 -16.4225 
1 15.1789 9.99008 
3 5.956 -14.0915 
3 4.7865 6.21726 
3 -1.14963 11.6815 
2 -3.44172 -2.94355 
3 -19.4718 15.6247 
1 0.359903 6.33887 
1 4.56075 -14.9114 
3 -16.5567 12.4834 
2 -16.2514 6.63409 
1 0.908938 -15.462 
3 8.83174 -8.88174 
1 7.92372 7.51887 
1 15.6687 4.30525 
1 -3.04763 -17.0441 
1 -2.49323 -9.39564 
2 10.4063 -7.8041 
2 -5.79112 -9.992 
3 -14.945 -0.139271 
1 16.2332 -6.42673 
2 -15.6937 8.01024 
3 -20.1237 14.8092 
1 -21.7597 1.09867 
3 20.1244 12.3732 
2 3.22675 -16.2358 
1 -4.71674 16.3401 
1 -5.86333 -1.99172 
3 0.170397 -2.89163 
1 -2.70681 5.19116 
1 -2.22326 13.6239 
1 0.747515 13.38 
2 9.73506 -1.86085 
2 12.0955 18.2079 
3 -9.62489 -0.0132194 
3 11.4019 3.58796 
1 -7.53065 -2.62057 
2 -0.246122 10.145 
1 -18.5731 1.36309 
1 -8.36903 -6.26185 
1 3.28687 -5.92119 
2 -11.1675 11.3627 
1 6.09238 -3.02465 
1 18.6485 3.46741 
1 0.108499 -5.84948 
1 9.16762 -14.0689 
3 15.1894 13.6571 
2 11.1057 -1.71768 
1 -3.98744 14.3217 
3 -8.61902 17.9062 
1 -9.9782 -12.462 
1 7.30357 -7.99906 
2 -13.3678 6.77131 
1 -1.50206 -3.13797 
1 4.72154 -2.11662 
1 9.74802 -8.42116 
3 -16.6384 -7.39032 
2 15.5189 12.8158 
1 -19.5365 6.58868 
2 -4.24516 -9.57508 
1 -7.09576 -8.58772 
3 4.63122 4.28801 
3 16.0787 -9.16123 
2 13.2824 -0.283929 
1 -3.11152 6.25664 
1 5.09841 -0.401487 
3 -21.1158 -5.17448 
3 14.7514 -1.07607 
1 7.13008 4.99084 
1 -3.77126 1.99409 
3 21.525 9.45538 
1 11.3521 15.8032 
1 16.7331 -10.9356 
1 -6.32981 4.53537 
1 9.6238 -11.9409 
1 -8.45661 -3.18984 
2 1.20338 3.00632 
1 8.85675 -1.78295 
3 -11.5221 -8.3324 
1 8.25103 -10.9284 
3 9.79591 7.77997 
2 14.5739 -8.58382 
2 13.8825 4.88092 
3 -6.48139 -10.5478 
2 2.1617 11.177 
3 9.07344 4.12964 
2 -15.3925 -10.4761 
2 -5.52313 3.99949 
3 17.6292 -17.3948 
2 6.42608 -1.11001 
2 -5.16279 10.1609 
3 3.97774 -8.88676 
3 -2.91702 -0.575569 
2 13.7427 13.0243 
3 -14.4941 -10.2936 
1 -2.42998 14.9134 
1 4.3336 13.9906 
1 -2.23247 -16.2467 
1 13.8249 -5.5599 
3 -9.09305 4.62897 
1 -17.1081 14.5045 
3 7.09597 8.09949 
2 6.23951 -12.4836 
3 -5.88659 -2.98136 
3 -11.5836 -1.74638 
1 -7.03888 0.0214913 
2 -14.9631 -15.0498 
3 -7.9474 -0.341394 
2 -12.381 0.821017 
3 2.34018 16.5249 
1 -6.90367 12.9028 
3 -24.3879 -13.3679 
3 -9.52597 12.2332 
1 5.45204 -12.0835 
1 -14.1871 -9.28992 
3 -6.29816 3.57992 
3 3.23385 -10.3254 
1 10.83 7.56165 
3 14.1532 -0.269746 
3 -4.16584 -3.44852 
3 11.6005 10.0657 
1 19.5119 -2.52984 
2 14.8501 18.9019 
1 10.4702 -2.32416 
1 0.10684 7.38964 
1 5.52123 10.2405 
3 -12.4368 -2.32074 
1 17.6861 -9.61284 
3 -14.8734 5.4415 
2 -3.24844 -9.87837 
2 -1.03297 1.2071 
1 -12.7055 -5.11934 
2 3.4776 14.1791 
1 -7.88324 13.5605 
3 -4.15465 12.553 
1 -11.0734 -17.9363 
2 2.41606 -5.64995 
1 5.54626 -8.8251 
3 0.344165 -10.6569 
2 15.3848 -7.51506 
2 -0.759034 -14.8472 
1 -3.54663 -9.04508 
3 13.0249 4.57517 
2 -2.13004 -10.2102 
3 -15.6919 1.02538 
1 16.4813 8.57646 
3 18.9005 12.9992 
2 4.964 -10.322 
2 -5.79911 -13.3878 
2 -7.64091 -3.51819 
2 2.17588 1.54999 
1 -5.2883 18.7785 
1 10.2499 -14.0552 
1 5.28607 9.16018 
1 15.1463 3.3307 
1 -16.9028 -2.7657 
1 6.88961 -9.91077 
1 -5.16646 17.3558 
2 -16.2448 14.1613 
3 -16.9401 -3.80379 
2 -12.078 9.97442 
3 11.4871 5.40977 
3 -13.4096 -3.47765 
2 -7.17139 -13.9649 
2 -10.2087 5.91533 
3 11.5893 6.70477 
3 1.79877 11.9956 
1 -12.4569 -10.8327 
1 1.84138 -14.771 
2 5.609 -2.26323 
2 -5.93961 -21.1882 
1 3.55782 8.13848 
2 -11.8038 -14.4322 
3 -13.8616 5.20392 
2 -13.6081 10.6488 
2 -7.23444 -0.866553 
1 13.651 -1.11645 
1 11.7097 0.154067 
1 -1.94311 4.41349 
2 -3.37416 2.81492 
3 -10.1963 3.35837 
3 -4.50122 -8.73915 
2 -4.57811 -4.23934 
2 -12.2503 -8.84573 
2 -2.67475 -21.4801 
2 -3.91095 -12.2713 
1 12.8975 12.7364 